 Gaussian 09, Revision C.01,
 Gaussian 09:  EM64L-G09RevC.01 23-Sep-2011

 ------------------------------------------------------------
 #HF/6-31G* SCF=tight Test Pop=MK iop(6/33=2) iop(6/42=6) opt
 ------------------------------------------------------------

 99/9=1/99;
 ---------------------
 remark line goes here
 ---------------------
 Charge =  0 Multiplicity = 1

 SCF Done:  E(RHF) =  -903.775649519     A.U. after   16 cycles
 SCF Done:  E(RHF) =  -903.822866885     A.U. after   14 cycles
 SCF Done:  E(RHF) =  -903.835139505     A.U. after   15 cycles
 SCF Done:  E(RHF) =  -903.840872053     A.U. after   14 cycles
 SCF Done:  E(RHF) =  -903.842363461     A.U. after   13 cycles
 SCF Done:  E(RHF) =  -903.842569439     A.U. after   13 cycles
 SCF Done:  E(RHF) =  -903.842632038     A.U. after   12 cycles
 SCF Done:  E(RHF) =  -903.842681409     A.U. after   11 cycles
 SCF Done:  E(RHF) =  -903.842687877     A.U. after   11 cycles
 SCF Done:  E(RHF) =  -903.842692428     A.U. after   10 cycles
 SCF Done:  E(RHF) =  -903.842725764     A.U. after   16 cycles
 SCF Done:  E(RHF) =  -903.842733419     A.U. after   12 cycles
 SCF Done:  E(RHF) =  -903.842741909     A.U. after   13 cycles
 SCF Done:  E(RHF) =  -903.842740588     A.U. after   13 cycles
 SCF Done:  E(RHF) =  -903.842737244     A.U. after   15 cycles
 SCF Done:  E(RHF) =  -903.842744549     A.U. after   13 cycles
 SCF Done:  E(RHF) =  -903.842745156     A.U. after   11 cycles
 SCF Done:  E(RHF) =  -903.842745687     A.U. after   11 cycles
 SCF Done:  E(RHF) =  -903.842745694     A.U. after    7 cycles
 SCF Done:  E(RHF) =  -903.842745700     A.U. after    7 cycles
 Optimization completed.
    -- Stationary point found.

                         Standard orientation:
 ---------------------------------------------------------------------
 Center     Atomic      Atomic             Coordinates (Angstroms)
 Number     Number       Type             X           Y           Z
 ---------------------------------------------------------------------
      1          9           0       -4.136733    0.397889   -0.353613
      2          9           0       -2.824676    1.774468    0.612547
      3          6           0       -3.075332    0.487607    0.432567
      4          6           0       -1.891832   -0.241550   -0.141123
      5          6           0       -2.091409   -1.380893   -0.905955
      6          6           0       -0.996592   -2.072373   -1.390673
      7          6           0        0.285911   -1.623462   -1.118838
      8          6           0        0.500386   -0.486368   -0.344396
      9          6           0       -0.610071    0.197013    0.143827
     10          6           0        1.873507   -0.017261   -0.046269
     11          6           0        2.536399    1.183879   -0.457863
     12          6           0        1.989374    2.284742   -1.311697
     13          7           0        3.741119    1.247984   -0.019737
     14          8           0        3.931229    0.085619    0.717532
     15          6           0        2.835079   -0.631936    0.690482
     16          7           0        2.842626   -1.780165    1.417068
     17          9           0       -3.430136   -0.003136    1.611643
     18          1           0        2.132642   -2.444761    1.206499
     19          1           0        3.739440   -2.168391    1.610424
     20          1           0        1.633734    1.889644   -2.256878
     21          1           0        1.153444    2.771983   -0.822223
     22          1           0        2.759142    3.019980   -1.502226
     23          1           0       -0.466451    1.070893    0.750697
     24          1           0        1.131616   -2.149696   -1.525087
     25          1           0       -3.086848   -1.717524   -1.126036
     26          1           0       -1.141388   -2.951183   -1.992311
 ---------------------------------------------------------------------

 The electronic state is 1-A.
 Alpha  occ. eigenvalues --  -26.33981 -26.33948 -26.33353 -20.64306 -15.60220
 Alpha  occ. eigenvalues --  -15.59939 -11.50569 -11.35551 -11.28088 -11.26847
 Alpha  occ. eigenvalues --  -11.26723 -11.26040 -11.25906 -11.25768 -11.25540
 Alpha  occ. eigenvalues --  -11.23366 -11.22651  -1.73694  -1.63549  -1.63042
 Alpha  occ. eigenvalues --   -1.51052  -1.25687  -1.19359  -1.17256  -1.09046
 Alpha  occ. eigenvalues --   -1.06290  -1.02070  -0.98624  -0.96458  -0.87493
 Alpha  occ. eigenvalues --   -0.87041  -0.82900  -0.82200  -0.81354  -0.79594
 Alpha  occ. eigenvalues --   -0.78558  -0.72163  -0.71224  -0.70677  -0.69958
 Alpha  occ. eigenvalues --   -0.69709  -0.67793  -0.66129  -0.65472  -0.65205
 Alpha  occ. eigenvalues --   -0.64035  -0.63754  -0.62156  -0.59456  -0.58694
 Alpha  occ. eigenvalues --   -0.58492  -0.55245  -0.54607  -0.52940  -0.52274
 Alpha  occ. eigenvalues --   -0.51933  -0.50138  -0.46599  -0.41434  -0.36655
 Alpha  occ. eigenvalues --   -0.36133  -0.31627
 Alpha virt. eigenvalues --    0.10687   0.11562   0.17490   0.21160   0.22640
 Alpha virt. eigenvalues --    0.24934   0.25155   0.27379   0.29290   0.29888
 Alpha virt. eigenvalues --    0.30923   0.31694   0.32583   0.35067   0.36254

 Mulliken atomic charges:
              1
     1  F   -0.369441
     2  F   -0.368310
     3  C    1.172849
     4  C   -0.194638
     5  C   -0.195030
     6  C   -0.204484
     7  C   -0.208261
     8  C    0.021476
     9  C   -0.198794
    10  C   -0.308190
    11  C    0.340762
    12  C   -0.523079
    13  N   -0.222143
    14  O   -0.517023
    15  C    0.768004
    16  N   -0.926391
    17  F   -0.360013
    18  H    0.391547
    19  H    0.396231
    20  H    0.189199
    21  H    0.188874
    22  H    0.210446
    23  H    0.244766
    24  H    0.216761
    25  H    0.238299
    26  H    0.216586
 Sum of Mulliken atomic charges =   0.00000

 Dipole moment (field-independent basis, Debye):
    X=             -0.3046    Y=             -4.0715    Z=             -1.6658  Tot=              4.4096
 Quadrupole moment (field-independent basis, Debye-Ang):
   XX=           -114.3021   YY=            -84.3545   ZZ=            -96.1574
   XY=             -8.4976   XZ=              2.4171   YZ=             -0.8941

 Normal termination of Gaussian 09 at Wed Nov 29 18:29:10 2017.
