 Gaussian 03, Revision D.02,
 Gaussian 03:  AM64L-G03RevD.02  1-Mar-2006

 ------------------------------------------------------------
 #HF/6-31G* SCF=tight Test Pop=MK iop(6/33=2) iop(6/42=6) opt
 ------------------------------------------------------------

 ---------------------
 remark line goes here
 ---------------------
 Symbolic Z-matrix:
 Charge =  1 Multiplicity = 1

 SCF Done:  E(RHF) =  -1434.07553937     A.U. after   16 cycles
 SCF Done:  E(RHF) =  -1434.09735962     A.U. after   13 cycles
 SCF Done:  E(RHF) =  -1434.10086603     A.U. after   14 cycles
 SCF Done:  E(RHF) =  -1434.10041392     A.U. after   15 cycles
 SCF Done:  E(RHF) =  -1434.10128961     A.U. after   12 cycles
 SCF Done:  E(RHF) =  -1434.10182662     A.U. after   14 cycles
 SCF Done:  E(RHF) =  -1434.10228026     A.U. after   14 cycles
 SCF Done:  E(RHF) =  -1434.10256000     A.U. after   13 cycles
 SCF Done:  E(RHF) =  -1434.10271755     A.U. after   12 cycles
 SCF Done:  E(RHF) =  -1434.10279271     A.U. after   12 cycles
 SCF Done:  E(RHF) =  -1434.10280913     A.U. after   13 cycles
 SCF Done:  E(RHF) =  -1434.10282030     A.U. after   13 cycles
 SCF Done:  E(RHF) =  -1434.10282567     A.U. after   11 cycles
 SCF Done:  E(RHF) =  -1434.10282797     A.U. after   11 cycles
 SCF Done:  E(RHF) =  -1434.10282863     A.U. after    9 cycles
 SCF Done:  E(RHF) =  -1434.10282882     A.U. after    8 cycles
 SCF Done:  E(RHF) =  -1434.10282887     A.U. after    8 cycles
 SCF Done:  E(RHF) =  -1434.10282888     A.U. after    6 cycles
 Optimization completed.
    -- Stationary point found.

                         Standard orientation:
 ---------------------------------------------------------------------
 Center     Atomic     Atomic              Coordinates (Angstroms)
 Number     Number      Type              X           Y           Z
 ---------------------------------------------------------------------
    1          6             0        6.791126   -0.869969   -2.471293
    2          6             0        5.844705   -1.501597   -1.449316
    3          6             0        5.226221   -0.486383   -0.483535
    4          6             0        4.357519    0.569260   -1.198022
    5          6             0        3.182383    1.029785   -0.327199
    6          7             0        2.439266    2.083484   -0.986593
    7          6             0        1.841423    3.125496   -0.274513
    8          6             0        1.585392    4.334573   -0.926174
    9          6             0        0.968418    5.375923   -0.263205
   10          6             0        0.587898    5.245836    1.065444
   11          6             0        0.836456    4.049826    1.711744
   12          6             0        1.451850    2.993246    1.055932
   13          6             0        2.355805   -0.214179   -0.059090
   14          6             0        1.000311   -0.317035   -0.301138
   15          6             0        0.320197   -1.514673   -0.088146
   16          6             0        1.041015   -2.624157    0.337166
   17          6             0        2.405949   -2.540508    0.549230
   18          6             0        3.063329   -1.331406    0.382630
   19          7             0        4.452450   -1.171350    0.576721
   20          6             0        5.141466   -1.558380    1.702732
   21          6             0        4.371613   -2.055334    2.910338
   22          8             0        6.336611   -1.477590    1.746812
   23          6             0       -1.145202   -1.600288   -0.330353
   24          6             0       -1.723649   -1.000905   -1.447960
   25          6             0       -3.087298   -1.068418   -1.667877
   26          6             0       -3.914862   -1.741006   -0.777835
   27          6             0       -5.400519   -1.816601   -0.999703
   28          6             0       -5.936121    0.589240   -0.482989
   29          6             0       -6.648692    1.518564    0.492083
   30          6             0       -8.144158    1.211595    0.572246
   31          6             0       -8.365893   -0.263833    0.906456
   32          6             0       -7.630719   -1.177452   -0.067292
   33          6             0       -3.342099   -2.361429    0.327739
   34          6             0       -1.981168   -2.284772    0.552472
   35          1             0        6.024517    0.022641    0.033400
   36          1             0        3.583898    1.393193    0.616122
   37          1             0        7.246871   -1.636003   -3.089123
   38          1             0        6.279625   -0.179579   -3.135020
   39          1             0        7.592005   -0.328117   -1.977131
   40          1             0        6.392095   -2.227857   -0.860934
   41          1             0        5.046935   -2.035887   -1.961201
   42          1             0        4.982318    1.417416   -1.457660
   43          1             0        3.953145    0.168984   -2.123703
   44          1             0        2.864444    2.391950   -1.832870
   45          1             0        1.879863    4.454854   -1.954941
   46          1             0        0.791438    6.299273   -0.785779
   47          1             0        0.116807    6.061755    1.582203
   48          1             0        0.554151    3.927949    2.742785
   49          1             0        1.620498    2.073905    1.584252
   50          1             0        0.471928    0.553833   -0.637916
   51          1             0        0.550696   -3.572716    0.462221
   52          1             0        2.957842   -3.418897    0.824931
   53          1             0        4.980395   -1.838890    3.776273
   54          1             0        4.243040   -3.130489    2.855746
   55          1             0        3.397941   -1.598605    3.019564
   56          1             0       -1.100748   -0.495299   -2.161566
   57          1             0       -3.500083   -0.608119   -2.549141
   58          1             0       -5.676712   -1.578938   -2.017000
   59          1             0       -5.782155   -2.799767   -0.762525
   60          1             0       -4.870186    0.752333   -0.489903
   61          1             0       -6.314710    0.705054   -1.490525
   62          1             0       -6.192142    1.430709    1.475192
   63          1             0       -6.477718    2.536785    0.162693
   64          1             0       -8.613126    1.835865    1.322679
   65          1             0       -8.618584    1.448116   -0.376532
   66          1             0       -8.031559   -0.473412    1.919860
   67          1             0       -9.418795   -0.517892    0.869222
   68          1             0       -7.719255   -2.216670    0.216266
   69          1             0       -8.000402   -1.064509   -1.078223
   70          1             0       -3.954872   -2.918195    1.018312
   71          1             0       -1.564080   -2.752471    1.424641
   72          7             0       -6.164181   -0.851778   -0.113195
   73          1             0       -5.797135   -0.974175    0.818868
 ---------------------------------------------------------------------

 The electronic state is 1-A.
 Alpha  occ. eigenvalues --  -20.57998 -15.84204 -15.65290 -15.63245 -11.43793
 Alpha  occ. eigenvalues --  -11.43631 -11.43120 -11.40653 -11.37503 -11.37291
 Alpha  occ. eigenvalues --  -11.36919 -11.36118 -11.35913 -11.35703 -11.35608
 Alpha  occ. eigenvalues --  -11.35029 -11.34401 -11.34202 -11.34026 -11.33720
 Alpha  occ. eigenvalues --  -11.32546 -11.32501 -11.31606 -11.31162 -11.31035
 Alpha  occ. eigenvalues --  -11.31031 -11.29549 -11.29158 -11.29110 -11.28444
 Alpha  occ. eigenvalues --  -11.28200 -11.28118 -11.27587 -11.27009 -11.26197
 Alpha  occ. eigenvalues --   -1.48436  -1.45198  -1.33406  -1.31075  -1.28725
 Alpha  occ. eigenvalues --   -1.24600  -1.23054  -1.20085  -1.19994  -1.17888
 Alpha  occ. eigenvalues --   -1.14797  -1.13674  -1.12496  -1.10492  -1.07742
 Alpha  occ. eigenvalues --   -1.07311  -1.06707  -1.05908  -1.04946  -1.03962
 Alpha  occ. eigenvalues --   -1.02857  -0.97321  -0.96885  -0.95154  -0.94594
 Alpha  occ. eigenvalues --   -0.92728  -0.91124  -0.89085  -0.88236  -0.86561
 Alpha  occ. eigenvalues --   -0.85952  -0.85274  -0.83981  -0.82445  -0.82234
 Alpha  occ. eigenvalues --   -0.79581  -0.78724  -0.77706  -0.77326  -0.76195
 Alpha  occ. eigenvalues --   -0.74883  -0.74337  -0.73861  -0.73546  -0.73174
 Alpha  occ. eigenvalues --   -0.72457  -0.71960  -0.71306  -0.70636  -0.70485
 Alpha  occ. eigenvalues --   -0.69505  -0.69372  -0.68810  -0.68228  -0.67608
 Alpha  occ. eigenvalues --   -0.66910  -0.66601  -0.66032  -0.65640  -0.65090
 Alpha  occ. eigenvalues --   -0.64223  -0.63705  -0.63409  -0.62614  -0.62273
 Alpha  occ. eigenvalues --   -0.61947  -0.61385  -0.61236  -0.61102  -0.60498
 Alpha  occ. eigenvalues --   -0.59715  -0.58970  -0.58839  -0.58323  -0.57600
 Alpha  occ. eigenvalues --   -0.56224  -0.56138  -0.55351  -0.54640  -0.54414
 Alpha  occ. eigenvalues --   -0.53041  -0.52264  -0.49075  -0.48433  -0.46734
 Alpha  occ. eigenvalues --   -0.45383  -0.44369  -0.41189  -0.39393  -0.37506
 Alpha  occ. eigenvalues --   -0.35047
 Alpha virt. eigenvalues --   -0.00599   0.01958   0.05088   0.06239   0.07070
 Alpha virt. eigenvalues --    0.08332   0.08766   0.10255   0.10509   0.11730
 Alpha virt. eigenvalues --    0.12945   0.13904   0.14406   0.14842   0.15316

 Mulliken atomic charges:
              1
     1  C   -0.501128
     2  C   -0.307805
     3  C    0.070552
     4  C   -0.389516
     5  C    0.081047
     6  N   -0.839963
     7  C    0.354152
     8  C   -0.274717
     9  C   -0.180541
    10  C   -0.232858
    11  C   -0.181783
    12  C   -0.272383
    13  C   -0.024848
    14  C   -0.232741
    15  C    0.002471
    16  C   -0.220920
    17  C   -0.207250
    18  C    0.320578
    19  N   -0.818604
    20  C    0.748972
    21  C   -0.586084
    22  O   -0.589556
    23  C    0.027355
    24  C   -0.207580
    25  C   -0.214927
    26  C   -0.018309
    27  C   -0.196994
    28  C   -0.177276
    29  C   -0.355770
    30  C   -0.336068
    31  C   -0.354488
    32  C   -0.174322
    33  C   -0.222371
    34  C   -0.208611
    35  H    0.226847
    36  H    0.202010
    37  H    0.178679
    38  H    0.155986
    39  H    0.174242
    40  H    0.200296
    41  H    0.153517
    42  H    0.195405
    43  H    0.181793
    44  H    0.376791
    45  H    0.197244
    46  H    0.208457
    47  H    0.202456
    48  H    0.201780
    49  H    0.204822
    50  H    0.241962
    51  H    0.216978
    52  H    0.229601
    53  H    0.224427
    54  H    0.197002
    55  H    0.187322
    56  H    0.244426
    57  H    0.220377
    58  H    0.243162
    59  H    0.245056
    60  H    0.258979
    61  H    0.223244
    62  H    0.194017
    63  H    0.231373
    64  H    0.222612
    65  H    0.190109
    66  H    0.192502
    67  H    0.231181
    68  H    0.237364
    69  H    0.230586
    70  H    0.209960
    71  H    0.237795
    72  N   -0.683442
    73  H    0.435373
 Sum of Mulliken charges=   1.00000

 Dipole moment (field-independent basis, Debye):
    X=   -27.5536    Y=    -2.6668    Z=    -1.6379  Tot=    27.7308
 Quadrupole moment (field-independent basis, Debye-Ang):
   XX=   -34.2154   YY=  -186.3606   ZZ=  -193.5862
   XY=    18.7152   XZ=   -12.2722   YZ=    -7.2606

 Normal termination of Gaussian 03 at Thu Sep 24 00:43:13 2015.
