 Gaussian 03, Revision D.02,
 Gaussian 03:  AM64L-G03RevD.02  1-Mar-2006

 ------------------------------------------------------------
 #HF/6-31G* SCF=tight Test Pop=MK iop(6/33=2) iop(6/42=6) opt
 ------------------------------------------------------------

 ---------------------
 remark line goes here
 ---------------------
 Symbolic Z-matrix:
 Charge = -1 Multiplicity = 1

 SCF Done:  E(RHF) =  -1371.69832699     A.U. after   16 cycles
 SCF Done:  E(RHF) =  -1371.72417453     A.U. after   13 cycles
 SCF Done:  E(RHF) =  -1371.72849142     A.U. after   15 cycles
 SCF Done:  E(RHF) =  -1371.72804709     A.U. after   15 cycles
 SCF Done:  E(RHF) =  -1371.72759768     A.U. after   17 cycles
 SCF Done:  E(RHF) =  -1371.72672364     A.U. after   13 cycles
 SCF Done:  E(RHF) =  -1371.72862991     A.U. after   13 cycles
 SCF Done:  E(RHF) =  -1371.72906570     A.U. after   13 cycles
 SCF Done:  E(RHF) =  -1371.72926182     A.U. after   13 cycles
 SCF Done:  E(RHF) =  -1371.72934550     A.U. after   12 cycles
 SCF Done:  E(RHF) =  -1371.72989190     A.U. after   14 cycles
 SCF Done:  E(RHF) =  -1371.73001757     A.U. after   13 cycles
 SCF Done:  E(RHF) =  -1371.73003555     A.U. after   16 cycles
 SCF Done:  E(RHF) =  -1371.73018515     A.U. after   13 cycles
 SCF Done:  E(RHF) =  -1371.73025903     A.U. after   15 cycles
 SCF Done:  E(RHF) =  -1371.73027928     A.U. after   14 cycles
 SCF Done:  E(RHF) =  -1371.73028430     A.U. after   14 cycles
 SCF Done:  E(RHF) =  -1371.73028559     A.U. after   14 cycles
 SCF Done:  E(RHF) =  -1371.73028587     A.U. after    8 cycles
 SCF Done:  E(RHF) =  -1371.73028592     A.U. after    7 cycles
 Optimization completed.
    -- Stationary point found.

                         Standard orientation:
 ---------------------------------------------------------------------
 Center     Atomic     Atomic              Coordinates (Angstroms)
 Number     Number      Type              X           Y           Z
 ---------------------------------------------------------------------
    1          6             0        6.489672   -0.748370   -2.158318
    2          6             0        5.130945   -1.296852   -2.600470
    3          6             0        4.233088   -1.766790   -1.448817
    4          6             0        3.801500   -0.673949   -0.463906
    5          6             0        3.006509    0.466364   -1.132100
    6          6             0        1.942179    1.053170   -0.193317
    7          7             0        1.355879    2.221328   -0.803170
    8          6             0        0.656150    3.200730   -0.101091
    9          6             0       -0.020908    4.183916   -0.829591
   10          6             0       -0.697207    5.200731   -0.188516
   11          6             0       -0.714756    5.279014    1.196962
   12          6             0       -0.048778    4.308332    1.920571
   13          6             0        0.627213    3.274891    1.289426
   14          6             0        0.993021   -0.090983    0.130958
   15          6             0       -0.379472   -0.056863   -0.035051
   16          6             0       -1.170386   -1.189636    0.174193
   17          6             0       -0.527686   -2.371229    0.532903
   18          6             0        0.847378   -2.422548    0.687199
   19          6             0        1.607880   -1.280247    0.514801
   20          7             0        3.024941   -1.260137    0.645662
   21          6             0        3.709355   -1.656177    1.756862
   22          6             0        2.929319   -2.047058    2.997260
   23          8             0        4.914102   -1.683122    1.776331
   24          6             0       -2.647237   -1.143569   -0.006354
   25          6             0       -3.219188   -0.461466   -1.078454
   26          6             0       -4.592577   -0.434497   -1.250281
   27          6             0       -5.440478   -1.081767   -0.360334
   28          6             0       -4.870442   -1.757814    0.711115
   29          6             0       -3.497699   -1.791813    0.887255
   30          6             0       -6.976569   -1.053030   -0.558745
   31          8             0       -7.619396   -1.662728    0.295403
   32          1             0        4.678686   -0.252181   -0.000789
   33          1             0        2.446680    1.373074    0.711092
   34          1             0        7.113977   -0.528262   -3.019517
   35          1             0        6.392381    0.168391   -1.585800
   36          1             0        7.017050   -1.466430   -1.537554
   37          1             0        5.295599   -2.144776   -3.260869
   38          1             0        4.616144   -0.549778   -3.199566
   39          1             0        4.754957   -2.532889   -0.884558
   40          1             0        3.338016   -2.227821   -1.860317
   41          1             0        3.688184    1.250120   -1.442825
   42          1             0        2.503391    0.104467   -2.025388
   43          1             0        0.996229    2.057178   -1.718507
   44          1             0       -0.009277    4.142697   -1.905435
   45          1             0       -1.215856    5.937634   -0.776380
   46          1             0       -1.245800    6.069329    1.695453
   47          1             0       -0.060681    4.338101    2.996117
   48          1             0        1.106808    2.524991    1.888076
   49          1             0       -0.857799    0.863616   -0.309702
   50          1             0       -1.105053   -3.268640    0.656959
   51          1             0        1.326107   -3.355684    0.923264
   52          1             0        3.588900   -1.900665    3.840972
   53          1             0        2.021891   -1.474709    3.128037
   54          1             0        2.661508   -3.096777    2.957348
   55          1             0       -2.584098    0.029072   -1.797247
   56          1             0       -5.036761    0.080902   -2.080366
   57          1             0       -5.529586   -2.248878    1.401334
   58          1             0       -3.082749   -2.305675    1.738400
   59          8             0       -7.358400   -0.425359   -1.546063
 ---------------------------------------------------------------------

 The electronic state is 1-A.
 Alpha  occ. eigenvalues --  -20.46276 -20.29818 -20.29815 -15.53128 -15.50907
 Alpha  occ. eigenvalues --  -11.28977 -11.21750 -11.21508 -11.20791 -11.20510
 Alpha  occ. eigenvalues --  -11.17270 -11.17260 -11.17228 -11.17221 -11.17012
 Alpha  occ. eigenvalues --  -11.16975 -11.16946 -11.16693 -11.16164 -11.16154
 Alpha  occ. eigenvalues --  -11.16135 -11.16005 -11.15872 -11.15854 -11.15686
 Alpha  occ. eigenvalues --  -11.14484 -11.13092 -11.11574 -11.11539 -11.09727
 Alpha  occ. eigenvalues --  -11.09719 -11.08479  -1.33246  -1.20889  -1.18818
 Alpha  occ. eigenvalues --   -1.18772  -1.08934  -1.08469  -1.07816  -1.03591
 Alpha  occ. eigenvalues --   -1.03138  -1.00131  -0.96361  -0.95408  -0.95179
 Alpha  occ. eigenvalues --   -0.94349  -0.92556  -0.89612  -0.89087  -0.87670
 Alpha  occ. eigenvalues --   -0.83066  -0.79638  -0.78521  -0.77061  -0.75788
 Alpha  occ. eigenvalues --   -0.73506  -0.72563  -0.70217  -0.69707  -0.68429
 Alpha  occ. eigenvalues --   -0.65691  -0.62564  -0.61869  -0.61522  -0.60480
 Alpha  occ. eigenvalues --   -0.59943  -0.58971  -0.57357  -0.56681  -0.55702
 Alpha  occ. eigenvalues --   -0.55330  -0.54892  -0.53888  -0.53675  -0.52858
 Alpha  occ. eigenvalues --   -0.52290  -0.51877  -0.51144  -0.50567  -0.49988
 Alpha  occ. eigenvalues --   -0.49793  -0.49546  -0.48480  -0.47201  -0.46656
 Alpha  occ. eigenvalues --   -0.46432  -0.45824  -0.45608  -0.45023  -0.44472
 Alpha  occ. eigenvalues --   -0.43368  -0.43095  -0.42635  -0.42400  -0.41851
 Alpha  occ. eigenvalues --   -0.41254  -0.40512  -0.40422  -0.39580  -0.38361
 Alpha  occ. eigenvalues --   -0.36515  -0.36165  -0.35635  -0.35497  -0.32951
 Alpha  occ. eigenvalues --   -0.27616  -0.26696  -0.25521  -0.22640  -0.21489
 Alpha  occ. eigenvalues --   -0.21429  -0.20804  -0.19524  -0.18603
 Alpha virt. eigenvalues --    0.18909   0.20665   0.20873   0.22531   0.25881
 Alpha virt. eigenvalues --    0.26625   0.27579   0.28060   0.29298   0.29314
 Alpha virt. eigenvalues --    0.30158   0.31011   0.32339   0.33247   0.34532

 Mulliken atomic charges:
              1
     1  C   -0.481538
     2  C   -0.320811
     3  C   -0.308101
     4  C    0.068315
     5  C   -0.354582
     6  C    0.065066
     7  N   -0.839682
     8  C    0.375802
     9  C   -0.265949
    10  C   -0.175166
    11  C   -0.231054
    12  C   -0.176033
    13  C   -0.265981
    14  C   -0.006232
    15  C   -0.262890
    16  C    0.027115
    17  C   -0.229263
    18  C   -0.206580
    19  C    0.280646
    20  N   -0.802895
    21  C    0.747410
    22  C   -0.581052
    23  O   -0.625633
    24  C    0.008073
    25  C   -0.222106
    26  C   -0.206399
    27  C   -0.135217
    28  C   -0.206567
    29  C   -0.227092
    30  C    0.783144
    31  O   -0.742627
    32  H    0.216068
    33  H    0.190389
    34  H    0.152598
    35  H    0.158418
    36  H    0.167953
    37  H    0.157976
    38  H    0.156737
    39  H    0.182538
    40  H    0.163624
    41  H    0.186897
    42  H    0.166737
    43  H    0.365591
    44  H    0.189032
    45  H    0.195238
    46  H    0.189137
    47  H    0.193551
    48  H    0.203519
    49  H    0.230297
    50  H    0.214551
    51  H    0.200956
    52  H    0.200707
    53  H    0.201430
    54  H    0.190854
    55  H    0.165960
    56  H    0.224534
    57  H    0.224726
    58  H    0.170551
    59  O   -0.742689
 Sum of Mulliken charges=  -1.00000

 Dipole moment (field-independent basis, Debye):
    X=    27.6420    Y=     4.2669    Z=     1.1085  Tot=    27.9913
 Quadrupole moment (field-independent basis, Debye-Ang):
   XX=  -463.0685   YY=  -198.7891   ZZ=  -190.5482
   XY=   -30.7509   XZ=   -28.2710   YZ=    -2.8879

 Normal termination of Gaussian 03 at Thu Sep 24 08:54:58 2015.
