 Gaussian 03, Revision D.02,
 Gaussian 03:  AM64L-G03RevD.02  1-Mar-2006

 ------------------------------------------------------------
 #HF/6-31G* SCF=tight Test Pop=MK iop(6/33=2) iop(6/42=6) opt
 ------------------------------------------------------------

 ---------------------
 remark line goes here
 ---------------------
 Symbolic Z-matrix:
 Charge =  0 Multiplicity = 1

 SCF Done:  E(RHF) =  -877.039352481     A.U. after   16 cycles
 SCF Done:  E(RHF) =  -877.055080701     A.U. after   14 cycles
 SCF Done:  E(RHF) =  -877.056210574     A.U. after   16 cycles
 SCF Done:  E(RHF) =  -877.056052484     A.U. after   15 cycles
 SCF Done:  E(RHF) =  -877.056537432     A.U. after   14 cycles
 SCF Done:  E(RHF) =  -877.056877090     A.U. after   13 cycles
 SCF Done:  E(RHF) =  -877.057026994     A.U. after   13 cycles
 SCF Done:  E(RHF) =  -877.057234648     A.U. after   13 cycles
 SCF Done:  E(RHF) =  -877.057327752     A.U. after   12 cycles
 SCF Done:  E(RHF) =  -877.057408635     A.U. after   12 cycles
 SCF Done:  E(RHF) =  -877.057436694     A.U. after   13 cycles
 SCF Done:  E(RHF) =  -877.057452996     A.U. after   12 cycles
 SCF Done:  E(RHF) =  -877.057463174     A.U. after   11 cycles
 SCF Done:  E(RHF) =  -877.057468212     A.U. after   12 cycles
 SCF Done:  E(RHF) =  -877.057469672     A.U. after   10 cycles
 SCF Done:  E(RHF) =  -877.057470396     A.U. after    9 cycles
 SCF Done:  E(RHF) =  -877.057470511     A.U. after    8 cycles
 Optimization completed.
    -- Stationary point found.

                         Standard orientation:
 ---------------------------------------------------------------------
 Center     Atomic     Atomic              Coordinates (Angstroms)
 Number     Number      Type              X           Y           Z
 ---------------------------------------------------------------------
    1          6             0       -3.028917   -1.940513   -1.658008
    2          6             0       -1.931390   -1.698409   -0.625875
    3          6             0       -0.547945   -1.523399   -1.282889
    4          6             0        0.345313   -0.563940   -0.486840
    5          7             0        1.671247   -0.503252   -1.064464
    6          6             0        2.818546   -0.366053   -0.286640
    7          6             0        2.799713    0.246751    0.964513
    8          6             0        3.972074    0.384998    1.691818
    9          6             0        5.180143   -0.070392    1.197088
   10          6             0        5.201628   -0.673133   -0.052539
   11          6             0        4.041423   -0.822327   -0.785200
   12          6             0       -0.382324    0.768650   -0.482308
   13          6             0        0.172799    1.969982   -0.886016
   14          6             0       -0.600896    3.121190   -0.926707
   15          6             0       -1.943511    3.064350   -0.598948
   16          6             0       -2.516048    1.859387   -0.221904
   17          6             0       -1.731275    0.721209   -0.133639
   18          7             0       -2.250068   -0.545690    0.239859
   19          6             0       -2.970129   -0.796081    1.377537
   20          6             0       -3.122065    0.301505    2.412288
   21          8             0       -3.458128   -1.876345    1.576193
   22          1             0       -1.888856   -2.548595    0.035834
   23          1             0        0.409450   -0.934447    0.534040
   24          1             0       -2.777659   -2.790445   -2.286553
   25          1             0       -3.969251   -2.149149   -1.164035
   26          1             0       -3.153095   -1.072435   -2.298517
   27          1             0       -0.078288   -2.499537   -1.362823
   28          1             0       -0.651497   -1.129764   -2.290283
   29          1             0        1.796495   -1.108159   -1.844977
   30          1             0        1.881679    0.631333    1.366882
   31          1             0        3.931978    0.860792    2.655945
   32          1             0        6.084305    0.041798    1.766988
   33          1             0        6.129327   -1.035396   -0.459489
   34          1             0        4.075836   -1.294942   -1.752285
   35          1             0        1.207000    2.001211   -1.170708
   36          1             0       -0.158351    4.052751   -1.230604
   37          1             0       -2.552890    3.948545   -0.653176
   38          1             0       -3.567066    1.804380   -0.007413
   39          1             0       -4.005626    0.893697    2.202514
   40          1             0       -3.268019   -0.187337    3.364957
   41          1             0       -2.271528    0.966416    2.461999
 ---------------------------------------------------------------------

 The electronic state is 1-A.
 Alpha  occ. eigenvalues --  -20.52130 -15.59209 -15.57031 -11.34824 -11.27810
 Alpha  occ. eigenvalues --  -11.27783 -11.27675 -11.26991 -11.23991 -11.23914
 Alpha  occ. eigenvalues --  -11.23764 -11.23715 -11.23452 -11.23305 -11.23214
 Alpha  occ. eigenvalues --  -11.23135 -11.22703 -11.22216 -11.21964 -11.21612
 Alpha  occ. eigenvalues --  -11.21204  -1.39232  -1.27119  -1.24934  -1.15353
 Alpha  occ. eigenvalues --   -1.13846  -1.08407  -1.04489  -1.01623  -1.01274
 Alpha  occ. eigenvalues --   -1.00592  -0.98663  -0.95803  -0.88569  -0.85365
 Alpha  occ. eigenvalues --   -0.84310  -0.83109  -0.80994  -0.78813  -0.75423
 Alpha  occ. eigenvalues --   -0.71760  -0.68768  -0.68114  -0.67754  -0.67505
 Alpha  occ. eigenvalues --   -0.65897  -0.63193  -0.62641  -0.61405  -0.60888
 Alpha  occ. eigenvalues --   -0.60137  -0.58942  -0.58682  -0.58247  -0.58191
 Alpha  occ. eigenvalues --   -0.56526  -0.55947  -0.55424  -0.53555  -0.52932
 Alpha  occ. eigenvalues --   -0.51685  -0.51060  -0.50797  -0.49651  -0.49178
 Alpha  occ. eigenvalues --   -0.48472  -0.48066  -0.47568  -0.42604  -0.41952
 Alpha  occ. eigenvalues --   -0.39714  -0.33916  -0.33250  -0.31617  -0.28833
 Alpha virt. eigenvalues --    0.13081   0.13851   0.14753   0.16580   0.20685
 Alpha virt. eigenvalues --    0.22597   0.23506   0.24274   0.24565   0.26101
 Alpha virt. eigenvalues --    0.26854   0.29126   0.29721   0.30205   0.30491

 Mulliken atomic charges:
              1
     1  C   -0.480442
     2  C    0.068957
     3  C   -0.384060
     4  C    0.079770
     5  N   -0.836741
     6  C    0.361072
     7  C   -0.268994
     8  C   -0.178921
     9  C   -0.232298
    10  C   -0.178481
    11  C   -0.273923
    12  C   -0.021818
    13  C   -0.216503
    14  C   -0.202673
    15  C   -0.206357
    16  C   -0.209343
    17  C    0.302307
    18  N   -0.802945
    19  C    0.747602
    20  C   -0.583395
    21  O   -0.606908
    22  H    0.221035
    23  H    0.193923
    24  H    0.157897
    25  H    0.197354
    26  H    0.161350
    27  H    0.182401
    28  H    0.181291
    29  H    0.372530
    30  H    0.208711
    31  H    0.199991
    32  H    0.195836
    33  H    0.199888
    34  H    0.190318
    35  H    0.235833
    36  H    0.205762
    37  H    0.205827
    38  H    0.212623
    39  H    0.193653
    40  H    0.212647
    41  H    0.195222
 Sum of Mulliken charges=   0.00000

 Dipole moment (field-independent basis, Debye):
    X=     1.1938    Y=     1.7686    Z=    -1.6478  Tot=     2.6960
 Quadrupole moment (field-independent basis, Debye-Ang):
   XX=  -128.3069   YY=  -124.8895   ZZ=  -122.1067
   XY=   -13.7789   XZ=     2.4453   YZ=     9.8101

 Normal termination of Gaussian 03 at Wed Sep 23 18:46:09 2015.
