 Gaussian 03, Revision D.02,
 Gaussian 03:  AM64L-G03RevD.02  1-Mar-2006

 ------------------------------------------------------------
 #HF/6-31G* SCF=tight Test Pop=MK iop(6/33=2) iop(6/42=6) opt
 ------------------------------------------------------------

 ---------------------
 remark line goes here
 ---------------------
 Symbolic Z-matrix:
 Charge =  0 Multiplicity = 1

 SCF Done:  E(RHF) =  -1334.33356401     A.U. after   16 cycles
 SCF Done:  E(RHF) =  -1334.35739014     A.U. after   14 cycles
 SCF Done:  E(RHF) =  -1334.35980852     A.U. after   14 cycles
 SCF Done:  E(RHF) =  -1334.36094872     A.U. after   16 cycles
 SCF Done:  E(RHF) =  -1334.36136382     A.U. after   15 cycles
 SCF Done:  E(RHF) =  -1334.36155399     A.U. after   12 cycles
 SCF Done:  E(RHF) =  -1334.36168902     A.U. after   13 cycles
 SCF Done:  E(RHF) =  -1334.36174315     A.U. after   12 cycles
 SCF Done:  E(RHF) =  -1334.36176546     A.U. after   16 cycles
 SCF Done:  E(RHF) =  -1334.36179603     A.U. after   12 cycles
 SCF Done:  E(RHF) =  -1334.36218242     A.U. after   18 cycles
 SCF Done:  E(RHF) =  -1334.36219737     A.U. after   13 cycles
 SCF Done:  E(RHF) =  -1334.36220199     A.U. after   13 cycles
 SCF Done:  E(RHF) =  -1334.36220308     A.U. after    9 cycles
 SCF Done:  E(RHF) =  -1334.36220346     A.U. after    8 cycles
 SCF Done:  E(RHF) =  -1334.36220361     A.U. after    7 cycles
 SCF Done:  E(RHF) =  -1334.36220369     A.U. after    8 cycles
 SCF Done:  E(RHF) =  -1334.36220373     A.U. after    7 cycles
 SCF Done:  E(RHF) =  -1334.36220375     A.U. after    7 cycles
 SCF Done:  E(RHF) =  -1334.36220376     A.U. after    6 cycles
 Optimization completed.
    -- Stationary point found.

                         Standard orientation:
 ---------------------------------------------------------------------
 Center     Atomic     Atomic              Coordinates (Angstroms)
 Number     Number      Type              X           Y           Z
 ---------------------------------------------------------------------
    1          6             0       -3.124486   -3.897344   -2.059739
    2          8             0       -2.487878   -2.960909   -1.237919
    3          6             0       -3.210401   -2.048172   -0.560444
    4          6             0       -4.599536   -1.995728   -0.610460
    5          6             0       -5.259174   -1.018847    0.109646
    6          6             0       -4.571839   -0.097018    0.874187
    7          6             0       -3.182727   -0.158034    0.916654
    8          8             0       -2.434345    0.692021    1.641377
    9          6             0       -3.026119    1.783011    2.289042
   10          6             0       -2.480142   -1.132729    0.202138
   11          6             0       -0.985470   -1.182918    0.248131
   12          6             0       -0.320634   -2.290045    0.752565
   13          6             0        1.063722   -2.334609    0.785156
   14          6             0        1.801973   -1.249478    0.347860
   15          7             0        3.221367   -1.225606    0.349428
   16          6             0        3.900826   -0.823924   -0.898664
   17          6             0        4.273714   -2.037786   -1.744848
   18          6             0        3.046549    0.190390   -1.683462
   19          6             0        2.059414    0.932713   -0.773904
   20          7             0        1.407066    1.982126   -1.516167
   21          6             0        0.737622    3.055632   -0.939298
   22          6             0       -0.015809    3.895846   -1.765762
   23          6             0       -0.665318    4.999102   -1.251476
   24          6             0       -0.583627    5.306667    0.099337
   25          6             0        0.158155    4.477384    0.920031
   26          6             0        0.808057    3.359544    0.419141
   27          6             0        1.152505   -0.135033   -0.180394
   28          6             0       -0.228252   -0.116898   -0.231152
   29          6             0        4.008536   -1.482857    1.438467
   30          6             0        3.355286   -1.669130    2.794106
   31          8             0        5.205893   -1.537398    1.340439
   32          1             0        4.808398   -0.333498   -0.584320
   33          1             0        2.633478    1.397177    0.019796
   34          1             0       -3.787250   -4.540695   -1.491072
   35          1             0       -3.685086   -3.413879   -2.852408
   36          1             0       -2.337833   -4.495068   -2.495046
   37          1             0       -5.161015   -2.694649   -1.197208
   38          1             0       -6.333228   -0.975724    0.074288
   39          1             0       -5.111121    0.646356    1.426177
   40          1             0       -2.214657    2.344693    2.725390
   41          1             0       -3.560033    2.416290    1.589500
   42          1             0       -3.701379    1.459713    3.074001
   43          1             0       -0.883696   -3.134173    1.104830
   44          1             0        1.563024   -3.215641    1.143660
   45          1             0        4.769610   -1.724117   -2.659412
   46          1             0        4.946733   -2.685489   -1.197600
   47          1             0        3.387254   -2.602454   -2.018309
   48          1             0        3.701343    0.900263   -2.176425
   49          1             0        2.478006   -0.316957   -2.459201
   50          1             0        1.029450    1.691122   -2.391174
   51          1             0       -0.077320    3.680776   -2.819024
   52          1             0       -1.235876    5.626950   -1.913269
   53          1             0       -1.085068    6.169935    0.497446
   54          1             0        0.235408    4.692740    1.971656
   55          1             0        1.355209    2.729459    1.093149
   56          1             0       -0.732571    0.738596   -0.636432
   57          1             0        3.109988   -2.713482    2.950711
   58          1             0        4.089298   -1.385124    3.534809
   59          1             0        2.453595   -1.086923    2.920339
 ---------------------------------------------------------------------

 The electronic state is 1-A.
 Alpha  occ. eigenvalues --  -20.59050 -20.58727 -20.51419 -15.58444 -15.56513
 Alpha  occ. eigenvalues --  -11.34117 -11.30451 -11.30353 -11.28456 -11.27970
 Alpha  occ. eigenvalues --  -11.27455 -11.27045 -11.26775 -11.26139 -11.24232
 Alpha  occ. eigenvalues --  -11.23527 -11.23023 -11.22941 -11.22918 -11.22856
 Alpha  occ. eigenvalues --  -11.22812 -11.22551 -11.22503 -11.22389 -11.22117
 Alpha  occ. eigenvalues --  -11.22058 -11.22054 -11.21809 -11.21640 -11.21333
 Alpha  occ. eigenvalues --  -11.20534  -1.42202  -1.41842  -1.38492  -1.26357
 Alpha  occ. eigenvalues --   -1.24359  -1.16041  -1.14116  -1.13332  -1.07632
 Alpha  occ. eigenvalues --   -1.05896  -1.02739  -1.02242  -1.00959  -1.00142
 Alpha  occ. eigenvalues --   -0.99667  -0.98063  -0.95824  -0.95282  -0.93331
 Alpha  occ. eigenvalues --   -0.87777  -0.86001  -0.83997  -0.82863  -0.81300
 Alpha  occ. eigenvalues --   -0.80563  -0.79950  -0.78030  -0.74782  -0.73096
 Alpha  occ. eigenvalues --   -0.71434  -0.69729  -0.68646  -0.67530  -0.67210
 Alpha  occ. eigenvalues --   -0.66641  -0.66635  -0.66143  -0.65647  -0.65516
 Alpha  occ. eigenvalues --   -0.63997  -0.62448  -0.62211  -0.61452  -0.60893
 Alpha  occ. eigenvalues --   -0.60253  -0.59551  -0.58546  -0.57952  -0.57732
 Alpha  occ. eigenvalues --   -0.57605  -0.56910  -0.56806  -0.55338  -0.55116
 Alpha  occ. eigenvalues --   -0.54543  -0.53834  -0.53264  -0.52642  -0.52007
 Alpha  occ. eigenvalues --   -0.51458  -0.50662  -0.50367  -0.50132  -0.49768
 Alpha  occ. eigenvalues --   -0.49043  -0.48691  -0.48081  -0.47368  -0.47219
 Alpha  occ. eigenvalues --   -0.46388  -0.44829  -0.41873  -0.41207  -0.38936
 Alpha  occ. eigenvalues --   -0.33374  -0.33165  -0.32492  -0.30828  -0.29026
 Alpha  occ. eigenvalues --   -0.28171
 Alpha virt. eigenvalues --    0.12306   0.14813   0.15008   0.16198   0.16936
 Alpha virt. eigenvalues --    0.17115   0.21411   0.23398   0.23611   0.23979
 Alpha virt. eigenvalues --    0.24304   0.24999   0.25070   0.26011   0.26954

 Mulliken atomic charges:
              1
     1  C   -0.186524
     2  O   -0.653425
     3  C    0.460265
     4  C   -0.308844
     5  C   -0.167060
     6  C   -0.306655
     7  C    0.465048
     8  O   -0.651749
     9  C   -0.184665
    10  C   -0.191847
    11  C    0.076209
    12  C   -0.190419
    13  C   -0.216178
    14  C    0.301798
    15  N   -0.804245
    16  C    0.067375
    17  C   -0.480246
    18  C   -0.355870
    19  C    0.068551
    20  N   -0.844131
    21  C    0.380204
    22  C   -0.270739
    23  C   -0.177936
    24  C   -0.236476
    25  C   -0.182034
    26  C   -0.265135
    27  C   -0.021314
    28  C   -0.214715
    29  C    0.746676
    30  C   -0.583244
    31  O   -0.610431
    32  H    0.218529
    33  H    0.195684
    34  H    0.161928
    35  H    0.163025
    36  H    0.194136
    37  H    0.206712
    38  H    0.205595
    39  H    0.208085
    40  H    0.195904
    41  H    0.166252
    42  H    0.158545
    43  H    0.209640
    44  H    0.209027
    45  H    0.156697
    46  H    0.195267
    47  H    0.159871
    48  H    0.193807
    49  H    0.165497
    50  H    0.366848
    51  H    0.191341
    52  H    0.197961
    53  H    0.192278
    54  H    0.195512
    55  H    0.206937
    56  H    0.223477
    57  H    0.192659
    58  H    0.209423
    59  H    0.197122
 Sum of Mulliken charges=   0.00000

 Dipole moment (field-independent basis, Debye):
    X=    -6.0419    Y=    -0.4320    Z=    -1.1753  Tot=     6.1703
 Quadrupole moment (field-independent basis, Debye-Ang):
   XX=  -193.4715   YY=  -173.3483   ZZ=  -169.6706
   XY=     4.9888   XZ=    -4.3206   YZ=     8.8663

 Normal termination of Gaussian 03 at Thu Sep 24 01:29:52 2015.
