 Gaussian 03, Revision D.02,
 Gaussian 03:  AM64L-G03RevD.02  1-Mar-2006

 ------------------------------------------------------------
 #HF/6-31G* SCF=tight Test Pop=MK iop(6/33=2) iop(6/42=6) opt
 ------------------------------------------------------------

 ---------------------
 remark line goes here
 ---------------------
 Symbolic Z-matrix:
 Charge =  0 Multiplicity = 1

 SCF Done:  E(RHF) =  -1198.55588094     A.U. after   16 cycles
 SCF Done:  E(RHF) =  -1198.57649045     A.U. after   14 cycles
 SCF Done:  E(RHF) =  -1198.57891399     A.U. after   14 cycles
 SCF Done:  E(RHF) =  -1198.57994611     A.U. after   16 cycles
 SCF Done:  E(RHF) =  -1198.58037915     A.U. after   14 cycles
 SCF Done:  E(RHF) =  -1198.58094286     A.U. after   13 cycles
 SCF Done:  E(RHF) =  -1198.58135082     A.U. after   13 cycles
 SCF Done:  E(RHF) =  -1198.58167425     A.U. after   13 cycles
 SCF Done:  E(RHF) =  -1198.58178110     A.U. after   12 cycles
 SCF Done:  E(RHF) =  -1198.58182595     A.U. after   16 cycles
 SCF Done:  E(RHF) =  -1198.58185329     A.U. after   15 cycles
 SCF Done:  E(RHF) =  -1198.58186458     A.U. after   14 cycles
 SCF Done:  E(RHF) =  -1198.58186894     A.U. after   15 cycles
 SCF Done:  E(RHF) =  -1198.58187150     A.U. after    9 cycles
 SCF Done:  E(RHF) =  -1198.58187270     A.U. after    9 cycles
 SCF Done:  E(RHF) =  -1198.58187296     A.U. after    8 cycles
 SCF Done:  E(RHF) =  -1198.58187305     A.U. after    7 cycles
 SCF Done:  E(RHF) =  -1198.58187310     A.U. after    8 cycles
 SCF Done:  E(RHF) =  -1198.58187312     A.U. after    8 cycles
 Optimization completed.
    -- Stationary point found.

                         Standard orientation:
 ---------------------------------------------------------------------
 Center     Atomic     Atomic              Coordinates (Angstroms)
 Number     Number      Type              X           Y           Z
 ---------------------------------------------------------------------
    1          6             0        4.289030   -0.922254   -1.960398
    2          6             0        3.650095    0.041320   -0.964632
    3          6             0        2.568875    0.920136   -1.621103
    4          6             0        1.452004    1.288375   -0.636725
    5          7             0        0.561017    2.241936   -1.244757
    6          6             0       -0.353040    3.025551   -0.547400
    7          6             0       -0.358834    3.135785    0.841652
    8          6             0       -1.271731    3.968402    1.472783
    9          6             0       -2.199685    4.695143    0.750827
   10          6             0       -2.201101    4.579461   -0.632259
   11          6             0       -1.294233    3.761482   -1.274183
   12          6             0        0.829349   -0.029800   -0.199081
   13          6             0       -0.518912   -0.324137   -0.262394
   14          6             0       -1.002596   -1.589690    0.070304
   15          6             0       -0.089860   -2.570297    0.433747
   16          6             0        1.269437   -2.299416    0.464723
   17          6             0        1.729582   -1.025284    0.183634
   18          7             0        3.102860   -0.676579    0.205719
   19          6             0        3.952680   -0.899131    1.258079
   20          6             0        3.390254   -1.415175    2.568111
   21          8             0        5.126981   -0.664798    1.163218
   22          6             0       -2.455542   -1.875445    0.021919
   23          6             0       -3.512217   -1.232793    0.762053
   24          6             0       -3.401909   -0.129259    1.767985
   25          7             0       -4.651649   -1.745291    0.477373
   26          8             0       -4.416079   -2.724301   -0.446648
   27          6             0       -3.120703   -2.793361   -0.706309
   28          6             0       -2.698008   -3.809160   -1.712335
   29          1             0        4.418898    0.685844   -0.569138
   30          1             0        1.914418    1.763697    0.221149
   31          1             0        5.103647   -1.460843   -1.493770
   32          1             0        3.558508   -1.637696   -2.326646
   33          1             0        4.684023   -0.377448   -2.813285
   34          1             0        3.030926    1.821056   -2.008284
   35          1             0        2.121133    0.399453   -2.464301
   36          1             0        0.278066    2.011246   -2.171708
   37          1             0        0.335201    2.576120    1.438725
   38          1             0       -1.252629    4.038579    2.546230
   39          1             0       -2.905433    5.334276    1.248827
   40          1             0       -2.913259    5.133459   -1.218036
   41          1             0       -1.300739    3.693780   -2.348754
   42          1             0       -1.211055    0.433519   -0.576353
   43          1             0       -0.438426   -3.554264    0.690411
   44          1             0        1.964880   -3.080626    0.708541
   45          1             0        2.382456   -1.078865    2.766513
   46          1             0        4.055833   -1.073384    3.347802
   47          1             0        3.396113   -2.499271    2.577150
   48          1             0       -2.711943   -0.405770    2.557899
   49          1             0       -3.032071    0.782147    1.312591
   50          1             0       -4.373116    0.067195    2.201583
   51          1             0       -3.259646   -3.677247   -2.630198
   52          1             0       -1.642605   -3.714509   -1.927219
   53          1             0       -2.893592   -4.810840   -1.344624
 ---------------------------------------------------------------------

 The electronic state is 1-A.
 Alpha  occ. eigenvalues --  -20.64158 -20.52719 -15.60723 -15.59839 -15.57608
 Alpha  occ. eigenvalues --  -11.35402 -11.31197 -11.28761 -11.28444 -11.28331
 Alpha  occ. eigenvalues --  -11.27532 -11.27379 -11.25948 -11.25076 -11.24923
 Alpha  occ. eigenvalues --  -11.24770 -11.24555 -11.24462 -11.23833 -11.23629
 Alpha  occ. eigenvalues --  -11.23613 -11.23503 -11.23270 -11.22933 -11.22573
 Alpha  occ. eigenvalues --  -11.22508 -11.21974 -11.21594  -1.50710  -1.39839
 Alpha  occ. eigenvalues --   -1.27781  -1.25537  -1.18276  -1.16866  -1.14465
 Alpha  occ. eigenvalues --   -1.10349  -1.08912  -1.04938  -1.02828  -1.01749
 Alpha  occ. eigenvalues --   -1.01280  -0.99401  -0.98095  -0.97754  -0.96156
 Alpha  occ. eigenvalues --   -0.89145  -0.86988  -0.85413  -0.83746  -0.81651
 Alpha  occ. eigenvalues --   -0.80631  -0.79056  -0.76541  -0.75866  -0.72389
 Alpha  occ. eigenvalues --   -0.70757  -0.68883  -0.68679  -0.67984  -0.67145
 Alpha  occ. eigenvalues --   -0.66548  -0.65560  -0.63506  -0.63060  -0.62385
 Alpha  occ. eigenvalues --   -0.61455  -0.61126  -0.59686  -0.59152  -0.58995
 Alpha  occ. eigenvalues --   -0.58902  -0.58839  -0.58661  -0.58169  -0.57072
 Alpha  occ. eigenvalues --   -0.56749  -0.56346  -0.55928  -0.54442  -0.53825
 Alpha  occ. eigenvalues --   -0.53669  -0.53186  -0.52536  -0.51722  -0.51464
 Alpha  occ. eigenvalues --   -0.50635  -0.49839  -0.49116  -0.48739  -0.47928
 Alpha  occ. eigenvalues --   -0.46206  -0.42937  -0.42643  -0.40989  -0.39942
 Alpha  occ. eigenvalues --   -0.36120  -0.35008  -0.33785  -0.31268  -0.29068
 Alpha virt. eigenvalues --    0.11264   0.12501   0.14308   0.15900   0.16129
 Alpha virt. eigenvalues --    0.20021   0.22264   0.22841   0.23241   0.23693
 Alpha virt. eigenvalues --    0.23900   0.24832   0.25082   0.25995   0.27685

 Mulliken atomic charges:
              1
     1  C   -0.480536
     2  C    0.066079
     3  C   -0.359985
     4  C    0.071677
     5  N   -0.845895
     6  C    0.376360
     7  C   -0.273441
     8  C   -0.179883
     9  C   -0.233952
    10  C   -0.176950
    11  C   -0.272096
    12  C   -0.014228
    13  C   -0.242092
    14  C    0.025298
    15  C   -0.220193
    16  C   -0.208987
    17  C    0.306247
    18  N   -0.806905
    19  C    0.746728
    20  C   -0.584158
    21  O   -0.602840
    22  C   -0.267785
    23  C    0.316091
    24  C   -0.525571
    25  N   -0.195356
    26  O   -0.490072
    27  C    0.468008
    28  C   -0.531103
    29  H    0.221489
    30  H    0.200221
    31  H    0.198863
    32  H    0.157425
    33  H    0.160789
    34  H    0.199653
    35  H    0.166158
    36  H    0.368456
    37  H    0.203805
    38  H    0.201224
    39  H    0.198407
    40  H    0.202960
    41  H    0.193726
    42  H    0.232130
    43  H    0.215626
    44  H    0.218235
    45  H    0.193794
    46  H    0.215014
    47  H    0.194486
    48  H    0.184541
    49  H    0.200305
    50  H    0.206684
    51  H    0.204316
    52  H    0.196360
    53  H    0.200874
 Sum of Mulliken charges=   0.00000

 Dipole moment (field-independent basis, Debye):
    X=     0.3848    Y=    -0.7189    Z=    -1.4665  Tot=     1.6780
 Quadrupole moment (field-independent basis, Debye-Ang):
   XX=  -212.0518   YY=  -158.8938   ZZ=  -152.7656
   XY=   -10.2742   XZ=    -2.3802   YZ=     1.1468

 Normal termination of Gaussian 03 at Wed Sep 23 21:43:21 2015.
