 Gaussian 09, Revision C.01,
 Gaussian 09:  EM64L-G09RevC.01 23-Sep-2011

 ------------------------------------------------------------
 #HF/6-31G* SCF=tight Test Pop=MK iop(6/33=2) iop(6/42=6) opt
 ------------------------------------------------------------

 99/9=1/99;
 ---------------------
 remark line goes here
 ---------------------
 Charge =  0 Multiplicity = 1

 SCF Done:  E(RHF) =  -903.780742100     A.U. after   16 cycles
 SCF Done:  E(RHF) =  -903.826105868     A.U. after   14 cycles
 SCF Done:  E(RHF) =  -903.838621944     A.U. after   15 cycles
 SCF Done:  E(RHF) =  -903.841653507     A.U. after   14 cycles
 SCF Done:  E(RHF) =  -903.842717245     A.U. after   13 cycles
 SCF Done:  E(RHF) =  -903.842874135     A.U. after   12 cycles
 SCF Done:  E(RHF) =  -903.842909134     A.U. after   12 cycles
 SCF Done:  E(RHF) =  -903.842948719     A.U. after   11 cycles
 SCF Done:  E(RHF) =  -903.842955533     A.U. after   11 cycles
 SCF Done:  E(RHF) =  -903.842959112     A.U. after   11 cycles
 SCF Done:  E(RHF) =  -903.843109799     A.U. after   13 cycles
 SCF Done:  E(RHF) =  -903.843149682     A.U. after   13 cycles
 SCF Done:  E(RHF) =  -903.843159485     A.U. after   15 cycles
 SCF Done:  E(RHF) =  -903.843179725     A.U. after   12 cycles
 SCF Done:  E(RHF) =  -903.843182526     A.U. after   11 cycles
 SCF Done:  E(RHF) =  -903.843186825     A.U. after   12 cycles
 SCF Done:  E(RHF) =  -903.843187417     A.U. after   11 cycles
 SCF Done:  E(RHF) =  -903.843187707     A.U. after    9 cycles
 SCF Done:  E(RHF) =  -903.843188010     A.U. after    9 cycles
 SCF Done:  E(RHF) =  -903.843188069     A.U. after    9 cycles
 Optimization completed.
    -- Stationary point found.

                         Standard orientation:
 ---------------------------------------------------------------------
 Center     Atomic      Atomic             Coordinates (Angstroms)
 Number     Number       Type             X           Y           Z
 ---------------------------------------------------------------------
      1          6           0        0.983662    2.145030   -1.311814
      2          6           0        2.090589    1.450243   -0.844103
      3          6           0        1.901530    0.286953   -0.124064
      4          6           0        0.618517   -0.178115    0.137130
      5          6           0       -0.495607    0.500953   -0.335680
      6          6           0       -0.290544    1.672205   -1.068276
      7          6           0       -1.860153   -0.012353   -0.077938
      8          6           0       -2.932967    0.579186    0.664054
      9          6           0       -2.934824    1.890280    1.386201
     10          7           0       -3.977306   -0.166546    0.685595
     11          8           0       -3.645152   -1.293550   -0.055717
     12          6           0       -2.413711   -1.183070   -0.489881
     13          7           0       -1.957400   -2.187407   -1.283053
     14          6           0        3.066759   -0.494338    0.414901
     15          9           0        3.023310   -1.761442    0.024104
     16          9           0        3.075795   -0.510076    1.739663
     17          9           0        4.228466   -0.002237    0.020942
     18          1           0       -0.971122   -2.247771   -1.401658
     19          1           0       -2.422555   -3.063172   -1.186816
     20          1           0       -2.113033    1.934679    2.092244
     21          1           0       -2.817523    2.713660    0.690372
     22          1           0       -3.867299    2.014995    1.919458
     23          1           0       -1.140216    2.203759   -1.456823
     24          1           0        0.485894   -1.069102    0.724535
     25          1           0        3.080869    1.812359   -1.041793
     26          1           0        1.121496    3.048621   -1.877149
 ---------------------------------------------------------------------

 The electronic state is 1-A.
 Alpha  occ. eigenvalues --  -26.34395 -26.33869 -26.33687 -20.64339 -15.60267
 Alpha  occ. eigenvalues --  -15.59885 -11.50762 -11.35579 -11.28142 -11.26913
 Alpha  occ. eigenvalues --  -11.26800 -11.26055 -11.26043 -11.25612 -11.25440
 Alpha  occ. eigenvalues --  -11.23490 -11.22694  -1.73907  -1.63790  -1.63237
 Alpha  occ. eigenvalues --   -1.51094  -1.25669  -1.19401  -1.17297  -1.09071
 Alpha  occ. eigenvalues --   -1.06359  -1.02106  -0.98663  -0.96627  -0.87538
 Alpha  occ. eigenvalues --   -0.87184  -0.83049  -0.82395  -0.81471  -0.79610
 Alpha  occ. eigenvalues --   -0.78508  -0.72465  -0.71465  -0.70678  -0.69951
 Alpha  occ. eigenvalues --   -0.69683  -0.67787  -0.66254  -0.65634  -0.65255
 Alpha  occ. eigenvalues --   -0.64217  -0.63967  -0.62151  -0.59607  -0.58888
 Alpha  occ. eigenvalues --   -0.58450  -0.55317  -0.54685  -0.52940  -0.52339
 Alpha  occ. eigenvalues --   -0.51940  -0.50127  -0.46639  -0.41541  -0.36683
 Alpha  occ. eigenvalues --   -0.36206  -0.31515
 Alpha virt. eigenvalues --    0.10632   0.11612   0.17446   0.21255   0.22460
 Alpha virt. eigenvalues --    0.24625   0.25724   0.27195   0.29187   0.30080
 Alpha virt. eigenvalues --    0.30915   0.31855   0.32357   0.35423   0.35769

 Mulliken atomic charges:
              1
     1  C   -0.205012
     2  C   -0.199046
     3  C   -0.191267
     4  C   -0.220568
     5  C    0.028802
     6  C   -0.189231
     7  C   -0.307716
     8  C    0.339817
     9  C   -0.522704
    10  N   -0.221717
    11  O   -0.516749
    12  C    0.768158
    13  N   -0.926764
    14  C    1.175639
    15  F   -0.371584
    16  F   -0.364285
    17  F   -0.368857
    18  H    0.393864
    19  H    0.396734
    20  H    0.191366
    21  H    0.184130
    22  H    0.210912
    23  H    0.222006
    24  H    0.236035
    25  H    0.240279
    26  H    0.217761
 Sum of Mulliken atomic charges =   0.00000

 Dipole moment (field-independent basis, Debye):
    X=              1.4818    Y=              0.9782    Z=             -1.6176  Tot=              2.4020
 Quadrupole moment (field-independent basis, Debye-Ang):
   XX=           -120.3426   YY=            -81.4646   ZZ=            -96.8826
   XY=              1.2114   XZ=             -1.2881   YZ=              0.5519

 Normal termination of Gaussian 09 at Wed Nov 29 17:44:42 2017.
