 Gaussian 03, Revision D.02,
 Gaussian 03:  AM64L-G03RevD.02  1-Mar-2006

 ------------------------------------------------------------
 #HF/6-31G* SCF=tight Test Pop=MK iop(6/33=2) iop(6/42=6) opt
 ------------------------------------------------------------

 ---------------------
 remark line goes here
 ---------------------
 Symbolic Z-matrix:
 Charge =  0 Multiplicity = 1

 SCF Done:  E(RHF) =  -858.034446127     A.U. after   16 cycles
 SCF Done:  E(RHF) =  -858.061957163     A.U. after   15 cycles
 SCF Done:  E(RHF) =  -858.067133757     A.U. after   14 cycles
 SCF Done:  E(RHF) =  -858.067775672     A.U. after   13 cycles
 SCF Done:  E(RHF) =  -858.068019970     A.U. after   12 cycles
 SCF Done:  E(RHF) =  -858.068167285     A.U. after   12 cycles
 SCF Done:  E(RHF) =  -858.068408323     A.U. after   14 cycles
 SCF Done:  E(RHF) =  -858.068801433     A.U. after   13 cycles
 SCF Done:  E(RHF) =  -858.069410525     A.U. after   15 cycles
 SCF Done:  E(RHF) =  -858.069617158     A.U. after   15 cycles
 SCF Done:  E(RHF) =  -858.069634780     A.U. after   12 cycles
 SCF Done:  E(RHF) =  -858.069658274     A.U. after   11 cycles
 SCF Done:  E(RHF) =  -858.069667603     A.U. after   10 cycles
 SCF Done:  E(RHF) =  -858.069675153     A.U. after   11 cycles
 SCF Done:  E(RHF) =  -858.069676449     A.U. after    9 cycles
 SCF Done:  E(RHF) =  -858.069676885     A.U. after    8 cycles
 SCF Done:  E(RHF) =  -858.069677167     A.U. after    8 cycles
 SCF Done:  E(RHF) =  -858.069677261     A.U. after    7 cycles
 SCF Done:  E(RHF) =  -858.069677279     A.U. after    6 cycles
 Optimization completed.
    -- Stationary point found.

                         Standard orientation:
 ---------------------------------------------------------------------
 Center     Atomic     Atomic              Coordinates (Angstroms)
 Number     Number      Type              X           Y           Z
 ---------------------------------------------------------------------
    1          6             0       -3.905974   -3.642608   -0.512388
    2          6             0       -2.574681   -2.928482   -0.397074
    3          8             0       -2.839189   -1.550682   -0.308530
    4          6             0       -1.826358   -0.668276   -0.195144
    5          6             0       -2.201092    0.672306   -0.134948
    6          6             0       -1.248409    1.662599   -0.022436
    7          6             0        0.100926    1.316334    0.031525
    8          6             0        0.483167   -0.011762   -0.038648
    9          6             0       -0.487272   -1.011464   -0.152098
   10          6             0        1.918051   -0.382491   -0.000328
   11          6             0        2.596061   -1.233317    0.943266
   12          6             0        2.024717   -1.949074    2.127884
   13          7             0        3.846751   -1.316400    0.675658
   14          8             0        4.055715   -0.549570   -0.434916
   15          6             0        2.914970   -0.000862   -0.822758
   16          6             0        2.970679    0.864054   -2.035535
   17          6             0       -1.683247    3.110099    0.096630
   18          8             0       -0.691202    3.916776   -0.489557
   19          6             0       -1.914511    3.508509    1.554293
   20          1             0       -0.997382    3.400330    2.122562
   21          1             0       -2.239299    4.544714    1.620129
   22          1             0       -2.679189    2.889623    2.010120
   23          1             0       -0.927749    4.828223   -0.387243
   24          1             0       -2.615503    3.228154   -0.451037
   25          1             0        1.979357    1.194652   -2.311181
   26          1             0        3.590905    1.734289   -1.849552
   27          1             0        3.407094    0.314918   -2.862446
   28          1             0        1.479333   -1.259070    2.761969
   29          1             0        1.334671   -2.726143    1.818439
   30          1             0        2.822381   -2.402205    2.700899
   31          1             0       -0.176133   -2.034529   -0.228801
   32          1             0        0.842428    2.085317    0.125045
   33          1             0       -3.249143    0.907240   -0.186045
   34          1             0       -1.954274   -3.131629   -1.264678
   35          1             0       -2.037405   -3.260061    0.486534
   36          1             0       -4.522126   -3.439304    0.355767
   37          1             0       -4.438913   -3.310930   -1.395878
   38          1             0       -3.751070   -4.714374   -0.583631
 ---------------------------------------------------------------------

 The electronic state is 1-A.
 Alpha  occ. eigenvalues --  -20.63515 -20.58836 -20.56484 -15.60162 -11.30387
 Alpha  occ. eigenvalues --  -11.29998 -11.29068 -11.28817 -11.27000 -11.25151
 Alpha  occ. eigenvalues --  -11.24210 -11.23364 -11.22853 -11.22680 -11.22675
 Alpha  occ. eigenvalues --  -11.22361 -11.22218 -11.22209 -11.21949  -1.50073
 Alpha  occ. eigenvalues --   -1.41897  -1.37552  -1.17653  -1.16157  -1.09908
 Alpha  occ. eigenvalues --   -1.05994  -1.04360  -1.00018  -0.98821  -0.97697
 Alpha  occ. eigenvalues --   -0.96570  -0.89007  -0.85923  -0.84870  -0.79427
 Alpha  occ. eigenvalues --   -0.77437  -0.75526  -0.71593  -0.70840  -0.67711
 Alpha  occ. eigenvalues --   -0.67629  -0.67289  -0.66278  -0.64451  -0.62668
 Alpha  occ. eigenvalues --   -0.62102  -0.59501  -0.58410  -0.58384  -0.56650
 Alpha  occ. eigenvalues --   -0.56518  -0.56490  -0.56413  -0.55450  -0.55172
 Alpha  occ. eigenvalues --   -0.54669  -0.53874  -0.52586  -0.52431  -0.50850
 Alpha  occ. eigenvalues --   -0.50457  -0.49291  -0.47367  -0.46639  -0.45428
 Alpha  occ. eigenvalues --   -0.44079  -0.39917  -0.35871  -0.32189  -0.30458
 Alpha virt. eigenvalues --    0.12813   0.15577   0.16617   0.21471   0.22359
 Alpha virt. eigenvalues --    0.24794   0.24928   0.25799   0.26912   0.28377
 Alpha virt. eigenvalues --    0.28587   0.30016   0.30184   0.30522   0.30926

 Mulliken atomic charges:
              1
     1  C   -0.489322
     2  C   -0.004556
     3  O   -0.671035
     4  C    0.462792
     5  C   -0.289271
     6  C    0.020634
     7  C   -0.242115
     8  C    0.053067
     9  C   -0.310958
    10  C   -0.270435
    11  C    0.311726
    12  C   -0.517943
    13  N   -0.197580
    14  O   -0.490647
    15  C    0.467714
    16  C   -0.531112
    17  C    0.164072
    18  O   -0.751957
    19  C   -0.498028
    20  H    0.181249
    21  H    0.150837
    22  H    0.173127
    23  H    0.441932
    24  H    0.161009
    25  H    0.208024
    26  H    0.200391
    27  H    0.199246
    28  H    0.189991
    29  H    0.179319
    30  H    0.206369
    31  H    0.214045
    32  H    0.230864
    33  H    0.210726
    34  H    0.160267
    35  H    0.156243
    36  H    0.178431
    37  H    0.179359
    38  H    0.163526
 Sum of Mulliken charges=   0.00000

 Dipole moment (field-independent basis, Debye):
    X=    -4.0999    Y=     1.0861    Z=     0.0598  Tot=     4.2417
 Quadrupole moment (field-independent basis, Debye-Ang):
   XX=  -129.3665   YY=   -93.5828   ZZ=  -111.0822
   XY=     3.8567   XZ=    -4.2973   YZ=     1.3092

 1\1\GINC-COMPUTE-2-8\FOpt\RHF\6-31G(d)\C15H19N1O3\DAVE\08-Jun-2016\0\\
 #HF/6-31G* SCF=tight Test Pop=MK iop(6/33=2) iop(6/42=6) opt\\remark l
 ine goes here\\0,1\C,5.3303399629,11.048871951,-6.7619530253\C,4.00308
 241,10.6116644326,-7.3474880988\O,4.2035729321,10.3696423485,-8.717658
 4366\C,3.1798440327,9.9628637727,-9.4947257068\C,3.4857319124,9.772204
 2547,-10.8405686157\C,2.5150952541,9.3606443643,-11.729065398\C,1.2170
 964107,9.1339137051,-11.2737544715\C,0.9013976309,9.3312482548,-9.9409
 877976\C,1.8898353433,9.748036717,-9.0447157534\C,-0.4821060667,9.1090

 Normal termination of Gaussian 03 at Wed Jun  8 11:31:04 2016.
