 Gaussian 03, Revision D.02,
 Gaussian 03:  AM64L-G03RevD.02  1-Mar-2006

 ------------------------------------------------------------
 #HF/6-31G* SCF=tight Test Pop=MK iop(6/33=2) iop(6/42=6) opt
 ------------------------------------------------------------

 ---------------------
 remark line goes here
 ---------------------
 Symbolic Z-matrix:
 Charge =  0 Multiplicity = 1

 SCF Done:  E(RHF) =  -1100.43665699     A.U. after   16 cycles
 SCF Done:  E(RHF) =  -1100.47279790     A.U. after   14 cycles
 SCF Done:  E(RHF) =  -1100.48118124     A.U. after   14 cycles
 SCF Done:  E(RHF) =  -1100.48151902     A.U. after   12 cycles
 SCF Done:  E(RHF) =  -1100.48170103     A.U. after   12 cycles
 SCF Done:  E(RHF) =  -1100.48172494     A.U. after   12 cycles
 SCF Done:  E(RHF) =  -1100.48175326     A.U. after   10 cycles
 SCF Done:  E(RHF) =  -1100.48175680     A.U. after    9 cycles
 SCF Done:  E(RHF) =  -1100.48175768     A.U. after    9 cycles
 SCF Done:  E(RHF) =  -1100.48175800     A.U. after    8 cycles
 SCF Done:  E(RHF) =  -1100.48175812     A.U. after    8 cycles
 Optimization completed.
    -- Stationary point found.

                         Standard orientation:
 ---------------------------------------------------------------------
 Center     Atomic     Atomic              Coordinates (Angstroms)
 Number     Number      Type              X           Y           Z
 ---------------------------------------------------------------------
    1          8             0       -4.510448    2.515633    0.295840
    2          6             0       -4.027998    3.824516    0.440866
    3          6             0       -3.649199    1.496780    0.180121
    4          6             0       -4.252338    0.237080    0.047879
    5          6             0       -3.475432   -0.888742   -0.078450
    6          7             0        0.176872   -1.575275   -0.184326
    7          6             0       -5.372185   -2.303936   -0.218306
    8          8             0       -3.985079   -2.110749   -0.204307
    9          6             0       -2.058573   -0.780971   -0.075758
   10          8             0        6.206234    0.419983    0.037333
   11          7             0       -0.118440    0.698828    0.085097
   12          6             0       -1.169379   -1.931562   -0.227296
   13          6             0        0.651517   -0.311200   -0.031906
   14          8             0       -1.446679   -3.084412   -0.387679
   15          6             0        2.123890   -0.129670   -0.011245
   16          6             0        2.656330    1.097105   -0.381505
   17          6             0        4.022035    1.321356   -0.383396
   18          6             0        4.591594    2.658343   -0.801580
   19          6             0        4.861987    0.281552    0.010620
   20          6             0        4.362587   -0.958244    0.403697
   21          6             0        5.309242   -2.048296    0.842546
   22          6             0        2.992573   -1.143077    0.382421
   23          6             0       -1.484387    0.489099    0.059385
   24          6             0       -2.282100    1.632491    0.187674
   25          1             0       -1.788338    2.576001    0.291745
   26          1             0        2.608994   -2.091317    0.714387
   27          1             0        6.000151   -2.309076    0.048110
   28          1             0        5.904287   -1.730893    1.691898
   29          1             0        4.762537   -2.940317    1.124459
   30          1             0        5.157484    3.126878    0.000882
   31          1             0        5.248005    2.567944   -1.664452
   32          1             0        3.797974    3.341870   -1.073466
   33          1             0        1.986062    1.882447   -0.672965
   34          1             0        6.471213    1.288482   -0.227605
   35          1             0       -5.825869   -1.974683    0.709828
   36          1             0       -5.834314   -1.785532   -1.050957
   37          1             0       -5.518556   -3.366786   -0.331817
   38          1             0        0.800130   -2.331910   -0.358719
   39          1             0       -5.321636    0.196313    0.052102
   40          1             0       -3.431522    3.925581    1.340132
   41          1             0       -3.439580    4.123439   -0.418920
   42          1             0       -4.899259    4.457300    0.515859
 ---------------------------------------------------------------------

 The electronic state is 1-A.
 Alpha  occ. eigenvalues --  -20.60484 -20.59623 -20.58666 -20.51490 -15.60910
 Alpha  occ. eigenvalues --  -15.54625 -11.35053 -11.33964 -11.31433 -11.31121
 Alpha  occ. eigenvalues --  -11.30938 -11.28567 -11.28430 -11.27666 -11.24996
 Alpha  occ. eigenvalues --  -11.24865 -11.24685 -11.24440 -11.24387 -11.24352
 Alpha  occ. eigenvalues --  -11.22606 -11.22351 -11.21293 -11.20974  -1.42765
 Alpha  occ. eigenvalues --   -1.42507  -1.42346  -1.39192  -1.31314  -1.20488
 Alpha  occ. eigenvalues --   -1.17262  -1.13936  -1.07666  -1.06241  -1.03745
 Alpha  occ. eigenvalues --   -1.01550  -0.96744  -0.95897  -0.95186  -0.94212
 Alpha  occ. eigenvalues --   -0.90050  -0.86881  -0.83251  -0.81011  -0.80097
 Alpha  occ. eigenvalues --   -0.76918  -0.75530  -0.74170  -0.71639  -0.69860
 Alpha  occ. eigenvalues --   -0.68329  -0.67551  -0.66554  -0.66157  -0.65613
 Alpha  occ. eigenvalues --   -0.64050  -0.62549  -0.62151  -0.61636  -0.60979
 Alpha  occ. eigenvalues --   -0.60269  -0.58858  -0.58405  -0.58054  -0.57600
 Alpha  occ. eigenvalues --   -0.56810  -0.55781  -0.55760  -0.54318  -0.54251
 Alpha  occ. eigenvalues --   -0.53500  -0.52299  -0.51999  -0.50131  -0.49773
 Alpha  occ. eigenvalues --   -0.49640  -0.49075  -0.47994  -0.45012  -0.42818
 Alpha  occ. eigenvalues --   -0.41062  -0.38716  -0.33932  -0.32885  -0.31083
 Alpha  occ. eigenvalues --   -0.28944
 Alpha virt. eigenvalues --    0.09081   0.12951   0.13692   0.16924   0.20383
 Alpha virt. eigenvalues --    0.22329   0.23466   0.24535   0.25338   0.26666
 Alpha virt. eigenvalues --    0.27057   0.27971   0.28815   0.29213   0.29915

 Mulliken atomic charges:
              1
     1  O   -0.652206
     2  C   -0.190105
     3  C    0.495717
     4  C   -0.384789
     5  C    0.519768
     6  N   -0.932185
     7  C   -0.191845
     8  O   -0.619790
     9  C   -0.285912
    10  O   -0.760740
    11  N   -0.696625
    12  C    0.867542
    13  C    0.697772
    14  O   -0.592705
    15  C   -0.059752
    16  C   -0.208569
    17  C    0.000341
    18  C   -0.554445
    19  C    0.350356
    20  C   -0.010753
    21  C   -0.484235
    22  C   -0.242086
    23  C    0.326788
    24  C   -0.349014
    25  H    0.219038
    26  H    0.214289
    27  H    0.187875
    28  H    0.188588
    29  H    0.168401
    30  H    0.178964
    31  H    0.179130
    32  H    0.201178
    33  H    0.244898
    34  H    0.474816
    35  H    0.164347
    36  H    0.164477
    37  H    0.202518
    38  H    0.412142
    39  H    0.224491
    40  H    0.170023
    41  H    0.168504
    42  H    0.193793
 Sum of Mulliken charges=   0.00000

 Dipole moment (field-independent basis, Debye):
    X=     2.0402    Y=     4.4090    Z=    -0.2429  Tot=     4.8643
 Quadrupole moment (field-independent basis, Debye-Ang):
   XX=  -112.5028   YY=  -132.3221   ZZ=  -142.1212
   XY=     1.6821   XZ=    -3.9071   YZ=    -3.4346

 1\1\GINC-COMPUTE-2-8\FOpt\RHF\6-31G(d)\C18H18N2O4\DAVE\08-Jun-2016\0\\
 #HF/6-31G* SCF=tight Test Pop=MK iop(6/33=2) iop(6/42=6) opt\\remark l
 ine goes here\\0,1\O,7.5725376063,11.0801959951,-6.6740725989\C,7.3823
 223326,10.2753421467,-5.5413804134\C,6.5748132333,11.2410606577,-7.552
 6353659\C,6.8844036799,12.0731270384,-8.6388805773\C,5.9434969668,12.3
 17522085,-9.6094382549\N,2.4314614015,11.2538990067,-10.2062423267\C,7
 .4190023249,13.7156830661,-10.8292883099\O,6.1731580487,13.0982104127,
 -10.6614191431\C,4.6538396956,11.7282574761,-9.5163598709\O,-2.7666490

 Normal termination of Gaussian 03 at Wed Jun  8 11:12:39 2016.
