 Gaussian 03, Revision D.02,
 Gaussian 03:  AM64L-G03RevD.02  1-Mar-2006

 ------------------------------------------------------------
 #HF/6-31G* SCF=tight Test Pop=MK iop(6/33=2) iop(6/42=6) opt
 ------------------------------------------------------------

 ---------------------
 remark line goes here
 ---------------------
 Symbolic Z-matrix:
 Charge =  0 Multiplicity = 1

 SCF Done:  E(RHF) =  -1178.74971170     A.U. after   16 cycles
 SCF Done:  E(RHF) =  -1178.76903652     A.U. after   14 cycles
 SCF Done:  E(RHF) =  -1178.77070593     A.U. after   14 cycles
 SCF Done:  E(RHF) =  -1178.77052623     A.U. after   14 cycles
 SCF Done:  E(RHF) =  -1178.77115122     A.U. after   12 cycles
 SCF Done:  E(RHF) =  -1178.77163241     A.U. after   12 cycles
 SCF Done:  E(RHF) =  -1178.77207277     A.U. after   17 cycles
 SCF Done:  E(RHF) =  -1178.77239851     A.U. after   14 cycles
 SCF Done:  E(RHF) =  -1178.77254684     A.U. after   15 cycles
 SCF Done:  E(RHF) =  -1178.77269159     A.U. after   14 cycles
 SCF Done:  E(RHF) =  -1178.77277158     A.U. after   15 cycles
 SCF Done:  E(RHF) =  -1178.77283658     A.U. after   11 cycles
 SCF Done:  E(RHF) =  -1178.77289903     A.U. after   13 cycles
 SCF Done:  E(RHF) =  -1178.77290435     A.U. after   12 cycles
 SCF Done:  E(RHF) =  -1178.77291169     A.U. after   11 cycles
 SCF Done:  E(RHF) =  -1178.77291339     A.U. after    9 cycles
 SCF Done:  E(RHF) =  -1178.77291367     A.U. after    9 cycles
 SCF Done:  E(RHF) =  -1178.77291373     A.U. after    9 cycles
 Optimization completed.
    -- Stationary point found.

                         Standard orientation:
 ---------------------------------------------------------------------
 Center     Atomic     Atomic              Coordinates (Angstroms)
 Number     Number      Type              X           Y           Z
 ---------------------------------------------------------------------
    1          6             0        7.007166   -0.491507    1.285631
    2          6             0        6.425983   -1.083434    0.007084
    3          7             0        5.040747   -0.710282   -0.197979
    4          6             0        3.944440   -1.457319   -0.015553
    5          6             0        2.854083   -0.667317   -0.272803
    6          6             0        3.436983    0.578127   -0.606858
    7          7             0        4.737643    0.533368   -0.557250
    8          6             0        1.424190   -1.024076   -0.220967
    9          6             0        0.987750   -2.309708   -0.520579
   10          6             0       -0.354791   -2.641233   -0.450222
   11          6             0       -1.293076   -1.673877   -0.134970
   12          7             0       -2.684345   -1.938041   -0.045028
   13          6             0       -3.388789   -1.482525    1.169578
   14          6             0       -3.464780   -2.588752    2.217888
   15          6             0       -2.741795   -0.199573    1.728722
   16          6             0       -1.962484    0.565031    0.651382
   17          7             0       -1.461937    1.817444    1.175559
   18          6             0       -1.369920    2.969580    0.398655
   19          6             0       -1.381056    4.218742    1.024580
   20          6             0       -1.259721    5.378594    0.286372
   21          6             0       -1.127701    5.331686   -1.094143
   22          6             0       -1.113411    4.097095   -1.716204
   23          6             0       -1.229059    2.923442   -0.986818
   24          6             0       -0.874055   -0.382853    0.179403
   25          6             0        0.471942   -0.074161    0.149618
   26          6             0       -3.439421   -2.519989   -1.027487
   27          6             0       -2.809160   -2.790075   -2.379589
   28          8             0       -4.594328   -2.796009   -0.840098
   29          1             0       -4.390066   -1.246114    0.846957
   30          1             0       -2.639850    0.761156   -0.177209
   31          1             0        8.047614   -0.782797    1.390802
   32          1             0        6.952994    0.589586    1.259758
   33          1             0        6.463537   -0.842219    2.156396
   34          1             0        6.467424   -2.165174    0.030345
   35          1             0        6.985389   -0.748417   -0.856050
   36          1             0        4.012909   -2.480036    0.292695
   37          1             0        2.940894    1.482843   -0.895457
   38          1             0        1.698034   -3.062708   -0.811237
   39          1             0       -0.667219   -3.650299   -0.645506
   40          1             0       -3.983896   -2.236159    3.104915
   41          1             0       -4.003522   -3.441539    1.825004
   42          1             0       -2.469640   -2.907236    2.513766
   43          1             0       -3.524504    0.427401    2.145989
   44          1             0       -2.054285   -0.439615    2.535070
   45          1             0       -1.734442    1.997557    2.115752
   46          1             0       -1.484445    4.273641    2.095120
   47          1             0       -1.272836    6.327156    0.793826
   48          1             0       -1.035950    6.236303   -1.666942
   49          1             0       -1.006473    4.035791   -2.785004
   50          1             0       -1.192448    1.980047   -1.497865
   51          1             0        0.782933    0.912052    0.435405
   52          1             0       -2.055915   -2.065560   -2.654859
   53          1             0       -2.354878   -3.774463   -2.390720
   54          1             0       -3.611410   -2.785935   -3.103607
 ---------------------------------------------------------------------

 The electronic state is 1-A.
 Alpha  occ. eigenvalues --  -20.52003 -15.64124 -15.59096 -15.57903 -15.56928
 Alpha  occ. eigenvalues --  -11.34699 -11.27754 -11.27703 -11.27567 -11.27438
 Alpha  occ. eigenvalues --  -11.26899 -11.26891 -11.24780 -11.24392 -11.23952
 Alpha  occ. eigenvalues --  -11.23903 -11.23638 -11.23502 -11.23090 -11.23014
 Alpha  occ. eigenvalues --  -11.22981 -11.22605 -11.22384 -11.22355 -11.22090
 Alpha  occ. eigenvalues --  -11.21848 -11.21482 -11.21151  -1.39243  -1.39099
 Alpha  occ. eigenvalues --   -1.27000  -1.24831  -1.15997  -1.13913  -1.13563
 Alpha  occ. eigenvalues --   -1.08333  -1.08018  -1.04167  -1.02588  -1.01159
 Alpha  occ. eigenvalues --   -1.00574  -0.99523  -0.98325  -0.95670  -0.88913
 Alpha  occ. eigenvalues --   -0.88158  -0.86052  -0.84507  -0.83143  -0.81039
 Alpha  occ. eigenvalues --   -0.80223  -0.78468  -0.76618  -0.75247  -0.72117
 Alpha  occ. eigenvalues --   -0.71572  -0.68130  -0.68044  -0.67669  -0.66265
 Alpha  occ. eigenvalues --   -0.65771  -0.64980  -0.63260  -0.62570  -0.61310
 Alpha  occ. eigenvalues --   -0.61290  -0.60742  -0.60443  -0.59293  -0.58778
 Alpha  occ. eigenvalues --   -0.58650  -0.58087  -0.58036  -0.56617  -0.56018
 Alpha  occ. eigenvalues --   -0.55761  -0.55401  -0.54518  -0.53512  -0.52912
 Alpha  occ. eigenvalues --   -0.52675  -0.51591  -0.51298  -0.50929  -0.50803
 Alpha  occ. eigenvalues --   -0.49659  -0.49034  -0.48369  -0.48049  -0.47494
 Alpha  occ. eigenvalues --   -0.44836  -0.42510  -0.42023  -0.40091  -0.35977
 Alpha  occ. eigenvalues --   -0.35291  -0.33873  -0.33130  -0.28769  -0.28532
 Alpha virt. eigenvalues --    0.12024   0.13754   0.14794   0.16677   0.18006
 Alpha virt. eigenvalues --    0.20592   0.22715   0.23252   0.23653   0.24422
 Alpha virt. eigenvalues --    0.24698   0.25656   0.26182   0.26665   0.27720

 Mulliken atomic charges:
              1
     1  C   -0.485877
     2  C   -0.109063
     3  N   -0.401223
     4  C    0.086260
     5  C   -0.186280
     6  C    0.040911
     7  N   -0.300628
     8  C    0.059376
     9  C   -0.231623
    10  C   -0.205092
    11  C    0.294972
    12  N   -0.804010
    13  C    0.069115
    14  C   -0.480210
    15  C   -0.384014
    16  C    0.083364
    17  N   -0.838155
    18  C    0.362451
    19  C   -0.273451
    20  C   -0.178235
    21  C   -0.232130
    22  C   -0.179045
    23  C   -0.271091
    24  C   -0.018855
    25  C   -0.246404
    26  C    0.747398
    27  C   -0.583718
    28  O   -0.608115
    29  H    0.220806
    30  H    0.193994
    31  H    0.164572
    32  H    0.198742
    33  H    0.168871
    34  H    0.175960
    35  H    0.202539
    36  H    0.226047
    37  H    0.215111
    38  H    0.203132
    39  H    0.212810
    40  H    0.157632
    41  H    0.196959
    42  H    0.160617
    43  H    0.182166
    44  H    0.181521
    45  H    0.372854
    46  H    0.190430
    47  H    0.199923
    48  H    0.196005
    49  H    0.200387
    50  H    0.208763
    51  H    0.242587
    52  H    0.195821
    53  H    0.192712
    54  H    0.212407
 Sum of Mulliken charges=   0.00000

 Dipole moment (field-independent basis, Debye):
    X=     3.2627    Y=    -1.1632    Z=     1.7346  Tot=     3.8739
 Quadrupole moment (field-independent basis, Debye-Ang):
   XX=  -173.9101   YY=  -160.4983   ZZ=  -158.4649
   XY=   -25.9391   XZ=    -2.8976   YZ=     2.8604

 Normal termination of Gaussian 03 at Thu Sep 24 00:20:24 2015.
