 Gaussian 03, Revision D.02,
 Gaussian 03:  AM64L-G03RevD.02  1-Mar-2006

 ------------------------------------------------------------
 #HF/6-31G* SCF=tight Test Pop=MK iop(6/33=2) iop(6/42=6) opt
 ------------------------------------------------------------

 ---------------------
 remark line goes here
 ---------------------
 Symbolic Z-matrix:
 Charge =  0 Multiplicity = 1

 SCF Done:  E(RHF) =  -970.455467478     A.U. after   17 cycles
 SCF Done:  E(RHF) =  -970.498478671     A.U. after   14 cycles
 SCF Done:  E(RHF) =  -970.509680485     A.U. after   15 cycles
 SCF Done:  E(RHF) =  -970.511225585     A.U. after   14 cycles
 SCF Done:  E(RHF) =  -970.511393414     A.U. after   13 cycles
 SCF Done:  E(RHF) =  -970.511590187     A.U. after   17 cycles
 SCF Done:  E(RHF) =  -970.511693872     A.U. after   11 cycles
 SCF Done:  E(RHF) =  -970.511733289     A.U. after   11 cycles
 SCF Done:  E(RHF) =  -970.511753166     A.U. after   11 cycles
 SCF Done:  E(RHF) =  -970.511776028     A.U. after   12 cycles
 SCF Done:  E(RHF) =  -970.513211172     A.U. after   13 cycles
 SCF Done:  E(RHF) =  -970.513247075     A.U. after   12 cycles
 SCF Done:  E(RHF) =  -970.513287264     A.U. after   13 cycles
 SCF Done:  E(RHF) =  -970.513304159     A.U. after   12 cycles
 SCF Done:  E(RHF) =  -970.513309934     A.U. after   13 cycles
 SCF Done:  E(RHF) =  -970.513312581     A.U. after   13 cycles
 SCF Done:  E(RHF) =  -970.513313598     A.U. after    9 cycles
 SCF Done:  E(RHF) =  -970.513313976     A.U. after    9 cycles
 SCF Done:  E(RHF) =  -970.513314134     A.U. after    8 cycles
 SCF Done:  E(RHF) =  -970.513314185     A.U. after    7 cycles
 Optimization completed.
    -- Stationary point found.

                         Standard orientation:
 ---------------------------------------------------------------------
 Center     Atomic     Atomic              Coordinates (Angstroms)
 Number     Number      Type              X           Y           Z
 ---------------------------------------------------------------------
    1          6             0        0.142342    0.182417    0.564562
    2          6             0       -4.065259   -0.516435   -1.845676
    3          6             0       -0.863058    1.142805    0.686630
    4          6             0       -0.608730    2.450340    0.328669
    5          6             0       -3.305462   -1.479491    0.637262
    6          6             0        0.645433    2.806291   -0.160685
    7          6             0        1.640677    1.858689   -0.276851
    8          6             0       -2.231373    0.746511    1.228111
    9          6             0       -2.985422   -0.177950    0.283455
   10          6             0       -3.997071   -2.295943   -0.248040
   11          6             0       -4.378500   -1.820374   -1.488603
   12          6             0        1.392794    0.531976    0.087524
   13          8             0       -2.108293    0.108353    2.472638
   14          6             0       -3.374649    0.295592   -0.966310
   15          8             0        0.830576    4.103053   -0.490717
   16          6             0        2.465206   -0.482639   -0.043899
   17          6             0        3.026614   -1.254538    0.906999
   18          6             0        2.830467   -1.375588    2.379641
   19          8             0        3.946086   -2.038070    0.367343
   20          7             0        4.016947   -1.811219   -0.977690
   21          6             0        3.156303   -0.898028   -1.237394
   22          6             0        2.955548   -0.418932   -2.641606
   23          1             0        1.912260   -0.501163   -2.924989
   24          1             0        3.243486    0.621541   -2.743599
   25          1             0        3.554458   -1.012085   -3.319252
   26          1             0        2.121431   -0.638247    2.728851
   27          1             0        2.460956   -2.363937    2.630650
   28          1             0        3.774750   -1.232673    2.892861
   29          1             0        1.712237    4.247650   -0.805143
   30          1             0       -3.132411    1.303716   -1.255524
   31          1             0       -1.622695    0.670298    3.060745
   32          1             0       -4.915713   -2.454164   -2.171441
   33          1             0       -4.238221   -3.304043    0.039438
   34          1             0       -2.819701    1.653507    1.345475
   35          1             0        2.616720    2.143642   -0.631224
   36          1             0       -3.022970   -1.851841    1.602075
   37          1             0       -1.360073    3.213827    0.419192
   38          1             0       -4.359378   -0.134412   -2.807118
   39          1             0       -0.065872   -0.837987    0.825998
 ---------------------------------------------------------------------

 The electronic state is 1-A.
 Alpha  occ. eigenvalues --  -20.64128 -20.60316 -20.57175 -15.60730 -11.31182
 Alpha  occ. eigenvalues --  -11.31118 -11.29884 -11.27575 -11.26267 -11.25156
 Alpha  occ. eigenvalues --  -11.24189 -11.23866 -11.23710 -11.23564 -11.23402
 Alpha  occ. eigenvalues --  -11.23255 -11.23056 -11.22896 -11.22754 -11.22700
 Alpha  occ. eigenvalues --  -11.22571 -11.22268  -1.50704  -1.42243  -1.38345
 Alpha  occ. eigenvalues --   -1.18302  -1.17032  -1.15176  -1.10462  -1.05800
 Alpha  occ. eigenvalues --   -1.02620  -1.01390  -1.01068  -0.98257  -0.97495
 Alpha  occ. eigenvalues --   -0.92673  -0.86073  -0.84797  -0.82427  -0.79929
 Alpha  occ. eigenvalues --   -0.78613  -0.76389  -0.73778  -0.71089  -0.69841
 Alpha  occ. eigenvalues --   -0.69282  -0.68261  -0.66951  -0.65367  -0.63359
 Alpha  occ. eigenvalues --   -0.63165  -0.61241  -0.60280  -0.60075  -0.59337
 Alpha  occ. eigenvalues --   -0.58965  -0.58913  -0.58140  -0.57529  -0.57212
 Alpha  occ. eigenvalues --   -0.57097  -0.54850  -0.54425  -0.53050  -0.51788
 Alpha  occ. eigenvalues --   -0.51379  -0.50566  -0.49075  -0.48483  -0.47335
 Alpha  occ. eigenvalues --   -0.46464  -0.45030  -0.40577  -0.36855  -0.33724
 Alpha  occ. eigenvalues --   -0.32983  -0.32345  -0.31271
 Alpha virt. eigenvalues --    0.11550   0.14006   0.14681   0.15453   0.16180
 Alpha virt. eigenvalues --    0.20976   0.22585   0.23654   0.24304   0.24787
 Alpha virt. eigenvalues --    0.25369   0.26256   0.28951   0.29469   0.30461

 Mulliken atomic charges:
              1
     1  C   -0.233591
     2  C   -0.199800
     3  C    0.001728
     4  C   -0.286776
     5  C   -0.212865
     6  C    0.429531
     7  C   -0.306254
     8  C    0.168418
     9  C   -0.025374
    10  C   -0.196749
    11  C   -0.202076
    12  C    0.048792
    13  O   -0.759058
    14  C   -0.207468
    15  O   -0.757608
    16  C   -0.271114
    17  C    0.470448
    18  C   -0.528910
    19  O   -0.489154
    20  N   -0.195023
    21  C    0.315017
    22  C   -0.519148
    23  H    0.194646
    24  H    0.178171
    25  H    0.208546
    26  H    0.196852
    27  H    0.203763
    28  H    0.202352
    29  H    0.459508
    30  H    0.201858
    31  H    0.445767
    32  H    0.199849
    33  H    0.200325
    34  H    0.181341
    35  H    0.201195
    36  H    0.235267
    37  H    0.219899
    38  H    0.200159
    39  H    0.227535
 Sum of Mulliken charges=   0.00000

 Dipole moment (field-independent basis, Debye):
    X=    -0.4833    Y=     2.9465    Z=     0.5831  Tot=     3.0423
 Quadrupole moment (field-independent basis, Debye-Ang):
   XX=  -140.4212   YY=  -128.2759   ZZ=  -117.4944
   XY=    15.5911   XZ=     6.0339   YZ=    -3.4352

 1\1\GINC-COMPUTE-2-8\FOpt\RHF\6-31G(d)\C18H17N1O3\DAVE\08-Jun-2016\0\\
 #HF/6-31G* SCF=tight Test Pop=MK iop(6/33=2) iop(6/42=6) opt\\remark l
 ine goes here\\0,1\C,0.8161691785,9.6882530598,-10.0376016895\C,3.8790
 21262,7.5938647365,-13.2366682192\C,2.0728848517,10.2636406813,-10.231
 6869978\C,2.9292690788,10.4163389834,-9.1612870576\C,1.8618754646,9.43
 11816997,-13.7111547663\C,2.5417923405,9.9890011344,-7.8938730288\C,1.
 2982374975,9.4249017422,-7.7006962816\C,2.4875348524,10.73377051,-11.6
 207799703\C,2.6706465579,9.5793248565,-12.5951094579\C,2.0579491714,8.

 Normal termination of Gaussian 03 at Wed Jun  8 13:33:01 2016.
