 Gaussian 03, Revision D.02,
 Gaussian 03:  AM64L-G03RevD.02  1-Mar-2006

 ------------------------------------------------------------
 #HF/6-31G* SCF=tight Test Pop=MK iop(6/33=2) iop(6/42=6) opt
 ------------------------------------------------------------

 ---------------------
 remark line goes here
 ---------------------
 Symbolic Z-matrix:
 Charge =  0 Multiplicity = 1

 SCF Done:  E(RHF) =  -1383.53347890     A.U. after   16 cycles
 SCF Done:  E(RHF) =  -1383.56369501     A.U. after   15 cycles
 SCF Done:  E(RHF) =  -1383.57816912     A.U. after   15 cycles
 SCF Done:  E(RHF) =  -1383.58073566     A.U. after   15 cycles
 SCF Done:  E(RHF) =  -1383.58163887     A.U. after   15 cycles
 SCF Done:  E(RHF) =  -1383.58188423     A.U. after   13 cycles
 SCF Done:  E(RHF) =  -1383.58208426     A.U. after   12 cycles
 SCF Done:  E(RHF) =  -1383.58219014     A.U. after   12 cycles
 SCF Done:  E(RHF) =  -1383.58224284     A.U. after   12 cycles
 SCF Done:  E(RHF) =  -1383.58225496     A.U. after   11 cycles
 SCF Done:  E(RHF) =  -1383.58226223     A.U. after   10 cycles
 SCF Done:  E(RHF) =  -1383.58226641     A.U. after   10 cycles
 SCF Done:  E(RHF) =  -1383.58226778     A.U. after    9 cycles
 SCF Done:  E(RHF) =  -1383.58226806     A.U. after    8 cycles
 Optimization completed.
    -- Stationary point found.

                         Standard orientation:
 ---------------------------------------------------------------------
 Center     Atomic     Atomic              Coordinates (Angstroms)
 Number     Number      Type              X           Y           Z
 ---------------------------------------------------------------------
    1         17             0        1.796575    4.121322   -0.825297
    2          6             0        0.641757    2.868588   -0.473002
    3          6             0        1.028819    1.547162   -0.534878
    4          6             0        0.119440    0.529310   -0.260062
    5          6             0        0.582161   -0.891498   -0.368566
    6          6             0        1.932477   -1.248956    0.168243
    7          6             0        2.407618   -0.687734    1.348347
    8          6             0        3.642403   -1.058353    1.856375
    9          6             0        4.419285   -1.985110    1.183400
   10          6             0        3.953985   -2.546840    0.003639
   11          6             0        2.717491   -2.186019   -0.498539
   12          7             0       -0.066220   -1.824035   -0.914024
   13          7             0       -1.334391   -1.534821   -1.452310
   14          6             0       -1.731894   -2.609374   -2.352353
   15          6             0       -2.262102   -1.267651   -0.451912
   16          7             0       -2.131578   -0.146946    0.315675
   17          6             0       -3.201273   -0.225798    1.182882
   18          6             0       -3.498550    0.725245    2.296442
   19          7             0       -3.881971   -1.275978    0.926684
   20          7             0       -3.288494   -1.943495   -0.113443
   21          6             0       -1.189067    0.872260    0.072602
   22          6             0       -1.569166    2.206029    0.123881
   23          6             0       -0.656133    3.207498   -0.137829
   24          1             0       -0.954956    4.237445   -0.099775
   25          1             0       -2.585818    2.464441    0.343474
   26          1             0       -2.595568    1.015802    2.821035
   27          1             0       -3.991289    1.624768    1.944529
   28          1             0       -4.163677    0.226872    2.987092
   29          1             0       -0.991365   -2.674361   -3.136337
   30          1             0       -1.805103   -3.560943   -1.839738
   31          1             0       -2.689841   -2.361040   -2.784647
   32          1             0        2.351135   -2.626732   -1.405737
   33          1             0        4.554323   -3.265716   -0.524257
   34          1             0        5.380328   -2.268503    1.573516
   35          1             0        3.993025   -0.623346    2.774843
   36          1             0        1.812718    0.031275    1.881272
   37          1             0        2.039407    1.301952   -0.795310
 ---------------------------------------------------------------------

 The electronic state is 1-A.
 Alpha  occ. eigenvalues -- -104.84274 -15.64276 -15.61525 -15.60996 -15.57310
 Alpha  occ. eigenvalues --  -15.56761 -11.33349 -11.32354 -11.32283 -11.30987
 Alpha  occ. eigenvalues --  -11.30963 -11.28393 -11.27710 -11.27593 -11.27284
 Alpha  occ. eigenvalues --  -11.25608 -11.24771 -11.24742 -11.24600 -11.24465
 Alpha  occ. eigenvalues --  -11.24305 -11.24236 -11.24067 -10.57605  -8.04546
 Alpha  occ. eigenvalues --   -8.04207  -8.04203  -1.42634  -1.34461  -1.26297
 Alpha  occ. eigenvalues --   -1.21307  -1.19341  -1.15801  -1.13579  -1.10749
 Alpha  occ. eigenvalues --   -1.06715  -1.03424  -1.02748  -1.02201  -0.99069
 Alpha  occ. eigenvalues --   -0.93932  -0.91457  -0.88325  -0.85204  -0.84061
 Alpha  occ. eigenvalues --   -0.81409  -0.80458  -0.78938  -0.73185  -0.71605
 Alpha  occ. eigenvalues --   -0.70562  -0.69706  -0.67312  -0.66634  -0.65228
 Alpha  occ. eigenvalues --   -0.64510  -0.63558  -0.62890  -0.61913  -0.60488
 Alpha  occ. eigenvalues --   -0.59932  -0.58543  -0.58261  -0.57495  -0.56749
 Alpha  occ. eigenvalues --   -0.55626  -0.54927  -0.54510  -0.53335  -0.51508
 Alpha  occ. eigenvalues --   -0.50426  -0.50019  -0.49433  -0.48028  -0.47183
 Alpha  occ. eigenvalues --   -0.45320  -0.43823  -0.42424  -0.40767  -0.37496
 Alpha  occ. eigenvalues --   -0.34628  -0.34523  -0.34116  -0.32001
 Alpha virt. eigenvalues --    0.07327   0.09851   0.11341   0.13784   0.17924
 Alpha virt. eigenvalues --    0.18978   0.21336   0.22555   0.22946   0.23579
 Alpha virt. eigenvalues --    0.26630   0.27359   0.28505   0.28734   0.29578

 Mulliken atomic charges:
              1
     1  Cl   0.018339
     2  C   -0.145479
     3  C   -0.180053
     4  C   -0.049591
     5  C    0.324026
     6  C   -0.032827
     7  C   -0.205808
     8  C   -0.203235
     9  C   -0.191592
    10  C   -0.205112
    11  C   -0.182999
    12  N   -0.331315
    13  N   -0.523162
    14  C   -0.277709
    15  C    0.859561
    16  N   -0.860088
    17  C    0.541792
    18  C   -0.538863
    19  N   -0.367630
    20  N   -0.413391
    21  C    0.355299
    22  C   -0.204434
    23  C   -0.177171
    24  H    0.245009
    25  H    0.240618
    26  H    0.189856
    27  H    0.187174
    28  H    0.227603
    29  H    0.180838
    30  H    0.189659
    31  H    0.193799
    32  H    0.233080
    33  H    0.209730
    34  H    0.209222
    35  H    0.208662
    36  H    0.213928
    37  H    0.262264
 Sum of Mulliken charges=   0.00000

 Dipole moment (field-independent basis, Debye):
    X=     3.1449    Y=     3.5101    Z=     0.8536  Tot=     4.7896
 Quadrupole moment (field-independent basis, Debye-Ang):
   XX=  -145.8907   YY=  -144.4181   ZZ=  -133.6113
   XY=   -24.1510   XZ=     2.2603   YZ=     8.9837

 Normal termination of Gaussian 03 at Wed Jun  8 11:57:53 2016.
