 Gaussian 03, Revision D.02,
 Gaussian 03:  AM64L-G03RevD.02  1-Mar-2006

 ------------------------------------------------------------
 #HF/6-31G* SCF=tight Test Pop=MK iop(6/33=2) iop(6/42=6) opt
 ------------------------------------------------------------

 ---------------------
 remark line goes here
 ---------------------
 Symbolic Z-matrix:
 Charge =  0 Multiplicity = 1

 SCF Done:  E(RHF) =  -1122.57831796     A.U. after   16 cycles
 SCF Done:  E(RHF) =  -1122.59767671     A.U. after   13 cycles
 SCF Done:  E(RHF) =  -1122.59921368     A.U. after   15 cycles
 SCF Done:  E(RHF) =  -1122.59904335     A.U. after   14 cycles
 SCF Done:  E(RHF) =  -1122.59955705     A.U. after   13 cycles
 SCF Done:  E(RHF) =  -1122.59992754     A.U. after   12 cycles
 SCF Done:  E(RHF) =  -1122.60007836     A.U. after   14 cycles
 SCF Done:  E(RHF) =  -1122.60035806     A.U. after   18 cycles
 SCF Done:  E(RHF) =  -1122.60051305     A.U. after   13 cycles
 SCF Done:  E(RHF) =  -1122.60071240     A.U. after   14 cycles
 SCF Done:  E(RHF) =  -1122.60075694     A.U. after   15 cycles
 SCF Done:  E(RHF) =  -1122.60079158     A.U. after   14 cycles
 SCF Done:  E(RHF) =  -1122.60081404     A.U. after   12 cycles
 SCF Done:  E(RHF) =  -1122.60082709     A.U. after   15 cycles
 SCF Done:  E(RHF) =  -1122.60082946     A.U. after   10 cycles
 SCF Done:  E(RHF) =  -1122.60083055     A.U. after   10 cycles
 SCF Done:  E(RHF) =  -1122.60083083     A.U. after    8 cycles
 SCF Done:  E(RHF) =  -1122.60083091     A.U. after    8 cycles
 Optimization completed.
    -- Stationary point found.

                         Standard orientation:
 ---------------------------------------------------------------------
 Center     Atomic     Atomic              Coordinates (Angstroms)
 Number     Number      Type              X           Y           Z
 ---------------------------------------------------------------------
    1          6             0        3.762585   -1.717804   -2.122467
    2          6             0        3.340856   -0.736226   -1.032894
    3          6             0        2.462738    0.401701   -1.589335
    4          6             0        1.440535    0.894637   -0.557634
    5          7             0        0.705493    2.031605   -1.070887
    6          6             0        0.306995    3.089270   -0.253819
    7          6             0        0.066336    2.926126    1.108448
    8          6             0       -0.356393    4.000704    1.876067
    9          6             0       -0.554546    5.248208    1.313930
   10          6             0       -0.322847    5.409961   -0.044445
   11          6             0        0.103162    4.350067   -0.819475
   12          6             0        0.567448   -0.306199   -0.239250
   13          6             0       -0.812560   -0.310207   -0.307181
   14          6             0       -1.543835   -1.474769   -0.076518
   15          6             0       -0.849704   -2.649435    0.188238
   16          6             0        0.534094   -2.661858    0.234725
   17          6             0        1.245398   -1.488144    0.052714
   18          7             0        2.661089   -1.426809    0.081466
   19          6             0        3.448790   -1.902370    1.097225
   20          6             0        2.792903   -2.407228    2.367251
   21          8             0        4.646545   -1.899108    1.002927
   22          6             0       -3.030614   -1.462351   -0.134295
   23          6             0       -3.726540   -0.789043   -1.131704
   24          6             0       -5.108320   -0.815277   -1.133186
   25          6             0       -5.754465   -1.520536   -0.132863
   26          7             0       -5.113266   -2.163640    0.825434
   27          6             0       -3.794903   -2.128795    0.820089
   28          1             0        4.227635   -0.301497   -0.600289
   29          1             0        1.981873    1.184247    0.340421
   30          1             0        4.449574   -2.451699   -1.721272
   31          1             0        2.898505   -2.232019   -2.532640
   32          1             0        4.259402   -1.192962   -2.933764
   33          1             0        3.110742    1.216671   -1.898453
   34          1             0        1.919384    0.068160   -2.469177
   35          1             0        1.013113    2.329966   -1.969533
   36          1             0        0.189610    1.965011    1.570752
   37          1             0       -0.535571    3.850399    2.926124
   38          1             0       -0.883510    6.075424    1.915839
   39          1             0       -0.470056    6.371036   -0.504928
   40          1             0        0.281075    4.493768   -1.871885
   41          1             0       -1.321271    0.608671   -0.526789
   42          1             0       -1.386550   -3.570900    0.322345
   43          1             0        1.055084   -3.587236    0.394748
   44          1             0        3.513889   -2.278449    3.161800
   45          1             0        2.576693   -3.466143    2.281740
   46          1             0        1.875055   -1.891474    2.611508
   47          1             0       -3.193184   -0.265065   -1.904322
   48          1             0       -5.672616   -0.308818   -1.894175
   49          1             0       -6.828791   -1.567751   -0.102970
   50          1             0       -3.308319   -2.647163    1.627682
 ---------------------------------------------------------------------

 The electronic state is 1-A.
 Alpha  occ. eigenvalues --  -20.52498 -15.59626 -15.57407 -15.56419 -11.35176
 Alpha  occ. eigenvalues --  -11.28303 -11.28209 -11.27934 -11.27356 -11.26984
 Alpha  occ. eigenvalues --  -11.26920 -11.25547 -11.25289 -11.25007 -11.24607
 Alpha  occ. eigenvalues --  -11.24489 -11.24301 -11.24112 -11.23956 -11.23938
 Alpha  occ. eigenvalues --  -11.23452 -11.23356 -11.23006 -11.22496 -11.22242
 Alpha  occ. eigenvalues --  -11.21856 -11.21504  -1.39613  -1.27551  -1.26694
 Alpha  occ. eigenvalues --   -1.25288  -1.16707  -1.14248  -1.10090  -1.08795
 Alpha  occ. eigenvalues --   -1.06089  -1.03806  -1.01544  -1.01307  -1.00585
 Alpha  occ. eigenvalues --   -0.98858  -0.96130  -0.89187  -0.88086  -0.86555
 Alpha  occ. eigenvalues --   -0.84748  -0.83616  -0.82507  -0.81239  -0.79072
 Alpha  occ. eigenvalues --   -0.75942  -0.72376  -0.71944  -0.69033  -0.68678
 Alpha  occ. eigenvalues --   -0.68208  -0.67711  -0.66785  -0.65914  -0.63716
 Alpha  occ. eigenvalues --   -0.63150  -0.61955  -0.61807  -0.61205  -0.60644
 Alpha  occ. eigenvalues --   -0.59337  -0.59089  -0.58647  -0.58460  -0.57465
 Alpha  occ. eigenvalues --   -0.57119  -0.56324  -0.56012  -0.54736  -0.54415
 Alpha  occ. eigenvalues --   -0.53830  -0.52453  -0.51956  -0.51320  -0.51024
 Alpha  occ. eigenvalues --   -0.49827  -0.49589  -0.48797  -0.48485  -0.47983
 Alpha  occ. eigenvalues --   -0.43083  -0.42588  -0.41252  -0.40468  -0.38158
 Alpha  occ. eigenvalues --   -0.35580  -0.34442  -0.33555  -0.30262  -0.29185
 Alpha virt. eigenvalues --    0.09965   0.12550   0.13021   0.14338   0.16056
 Alpha virt. eigenvalues --    0.16582   0.20485   0.22290   0.23408   0.24152
 Alpha virt. eigenvalues --    0.24368   0.24955   0.26130   0.27313   0.28697

 Mulliken atomic charges:
              1
     1  C   -0.480654
     2  C    0.068712
     3  C   -0.384991
     4  C    0.081031
     5  N   -0.835870
     6  C    0.357608
     7  C   -0.268190
     8  C   -0.178688
     9  C   -0.231270
    10  C   -0.178647
    11  C   -0.274095
    12  C   -0.021196
    13  C   -0.238224
    14  C    0.016490
    15  C   -0.224224
    16  C   -0.207620
    17  C    0.304379
    18  N   -0.806196
    19  C    0.747747
    20  C   -0.584211
    21  O   -0.604635
    22  C   -0.054298
    23  C   -0.147728
    24  C   -0.259142
    25  C    0.065551
    26  N   -0.517012
    27  C    0.056195
    28  H    0.221622
    29  H    0.195866
    30  H    0.198919
    31  H    0.160840
    32  H    0.158746
    33  H    0.183969
    34  H    0.180864
    35  H    0.372395
    36  H    0.208759
    37  H    0.201923
    38  H    0.197288
    39  H    0.200726
    40  H    0.190301
    41  H    0.242991
    42  H    0.217460
    43  H    0.217550
    44  H    0.214412
    45  H    0.194546
    46  H    0.195001
    47  H    0.222479
    48  H    0.212801
    49  H    0.203278
    50  H    0.206443
 Sum of Mulliken charges=   0.00000

 Dipole moment (field-independent basis, Debye):
    X=    -1.0080    Y=     1.5176    Z=    -2.6522  Tot=     3.2177
 Quadrupole moment (field-independent basis, Debye-Ang):
   XX=  -184.5207   YY=  -155.0702   ZZ=  -150.2874
   XY=    -0.5613   XZ=     1.9611   YZ=    -3.7597

 Normal termination of Gaussian 03 at Wed Sep 23 20:53:45 2015.
