 Gaussian 03, Revision D.02,
 Gaussian 03:  AM64L-G03RevD.02  1-Mar-2006

 ------------------------------------------------------------
 #HF/6-31G* SCF=tight Test Pop=MK iop(6/33=2) iop(6/42=6) opt
 ------------------------------------------------------------

 ---------------------
 remark line goes here
 ---------------------
 Symbolic Z-matrix:
 Charge =  0 Multiplicity = 1

 SCF Done:  E(RHF) =  -1253.32401334     A.U. after   16 cycles
 SCF Done:  E(RHF) =  -1253.36522843     A.U. after   13 cycles
 SCF Done:  E(RHF) =  -1253.37902683     A.U. after   14 cycles
 SCF Done:  E(RHF) =  -1253.38391177     A.U. after   13 cycles
 SCF Done:  E(RHF) =  -1253.38561967     A.U. after   13 cycles
 SCF Done:  E(RHF) =  -1253.38677006     A.U. after   14 cycles
 SCF Done:  E(RHF) =  -1253.38730350     A.U. after   13 cycles
 SCF Done:  E(RHF) =  -1253.38786377     A.U. after   17 cycles
 SCF Done:  E(RHF) =  -1253.38801787     A.U. after   17 cycles
 SCF Done:  E(RHF) =  -1253.38811351     A.U. after   12 cycles
 SCF Done:  E(RHF) =  -1253.38830269     A.U. after   14 cycles
 SCF Done:  E(RHF) =  -1253.38831005     A.U. after   12 cycles
 SCF Done:  E(RHF) =  -1253.38831690     A.U. after   11 cycles
 SCF Done:  E(RHF) =  -1253.38832332     A.U. after   11 cycles
 SCF Done:  E(RHF) =  -1253.38832837     A.U. after   14 cycles
 SCF Done:  E(RHF) =  -1253.38833094     A.U. after   11 cycles
 SCF Done:  E(RHF) =  -1253.38833199     A.U. after    9 cycles
 SCF Done:  E(RHF) =  -1253.38833243     A.U. after    8 cycles
 SCF Done:  E(RHF) =  -1253.38833254     A.U. after    8 cycles
 SCF Done:  E(RHF) =  -1253.38833256     A.U. after    7 cycles
 Optimization completed.
    -- Stationary point found.

                         Standard orientation:
 ---------------------------------------------------------------------
 Center     Atomic     Atomic              Coordinates (Angstroms)
 Number     Number      Type              X           Y           Z
 ---------------------------------------------------------------------
    1          8             0        5.230296    2.808599    0.361743
    2          6             0        4.625054    4.067307    0.491442
    3          6             0        4.470220    1.714764    0.224553
    4          6             0        5.190181    0.516574    0.106310
    5          6             0        4.524401   -0.676128   -0.039844
    6          7             0        0.955382   -1.697252   -0.238174
    7          6             0        6.547259   -1.908534   -0.136904
    8          8             0        5.148269   -1.845255   -0.154212
    9          6             0        3.104049   -0.700081   -0.071772
   10          8             0       -5.246418   -0.248833   -0.195084
   11          7             0        1.031793    0.593802    0.042519
   12          6             0        2.329151   -1.927934   -0.246617
   13          6             0        0.363537   -0.482400   -0.095610
   14          8             0       -7.470880    1.536773   -0.436372
   15          8             0        2.716420   -3.049665   -0.399659
   16          6             0       -1.121985   -0.439642   -0.108987
   17          6             0       -1.890509   -1.519678    0.310074
   18          6             0       -3.274198   -1.462280    0.299382
   19          6             0       -4.106739   -2.642350    0.742447
   20          6             0       -3.884140   -0.291369   -0.146379
   21          6             0       -5.902607    0.365840    0.890279
   22          6             0       -7.359959    0.533915    0.534585
   23          6             0       -3.141981    0.799971   -0.591035
   24          6             0       -3.811990    2.050293   -1.113494
   25          6             0       -1.758687    0.709029   -0.553685
   26          6             0        2.412211    0.511218    0.050348
   27          6             0        3.096570    1.723140    0.199143
   28          1             0        2.514671    2.616303    0.291225
   29          1             0       -1.160592    1.536499   -0.884487
   30          1             0       -4.804963    1.840704   -1.484658
   31          1             0       -3.902651    2.801290   -0.333161
   32          1             0       -3.224518    2.485272   -1.914061
   33          1             0       -7.746669   -0.414002    0.171379
   34          1             0       -7.909200    0.803831    1.434930
   35          1             0       -5.810696   -0.252801    1.778298
   36          1             0       -5.466106    1.334547    1.101809
   37          1             0       -4.631594   -2.437272    1.670296
   38          1             0       -4.851970   -2.892528   -0.003031
   39          1             0       -3.481505   -3.512094    0.905663
   40          1             0       -1.420586   -2.413199    0.680675
   41          1             0       -8.343562    1.535908   -0.802575
   42          1             0        6.977819   -1.346713   -0.958241
   43          1             0        6.947396   -1.541551    0.801672
   44          1             0        6.794443   -2.952793   -0.248266
   45          1             0        0.406765   -2.506065   -0.429313
   46          1             0        6.258261    0.574958    0.136188
   47          1             0        4.033055    4.310079   -0.383374
   48          1             0        3.999611    4.112817    1.375413
   49          1             0        5.431838    4.778078    0.586438
 ---------------------------------------------------------------------

 The electronic state is 1-A.
 Alpha  occ. eigenvalues --  -20.59542 -20.58615 -20.57958 -20.56748 -20.51432
 Alpha  occ. eigenvalues --  -15.60849 -15.54633 -11.34997 -11.33832 -11.31378
 Alpha  occ. eigenvalues --  -11.31053 -11.29245 -11.28750 -11.28493 -11.28471
 Alpha  occ. eigenvalues --  -11.28328 -11.27622 -11.24872 -11.24538 -11.24346
 Alpha  occ. eigenvalues --  -11.24191 -11.23502 -11.22678 -11.22579 -11.21539
 Alpha  occ. eigenvalues --  -11.21257 -11.20912  -1.42685  -1.42289  -1.41258
 Alpha  occ. eigenvalues --   -1.39129  -1.37323  -1.31265  -1.20440  -1.16900
 Alpha  occ. eigenvalues --   -1.13874  -1.06792  -1.06501  -1.03980  -1.02493
 Alpha  occ. eigenvalues --   -1.00709  -0.96458  -0.95137  -0.94340  -0.93661
 Alpha  occ. eigenvalues --   -0.89605  -0.86815  -0.85054  -0.81167  -0.80426
 Alpha  occ. eigenvalues --   -0.79846  -0.76821  -0.74649  -0.72868  -0.72231
 Alpha  occ. eigenvalues --   -0.71365  -0.69300  -0.68525  -0.67574  -0.66472
 Alpha  occ. eigenvalues --   -0.66061  -0.65551  -0.64053  -0.63469  -0.62963
 Alpha  occ. eigenvalues --   -0.61867  -0.61578  -0.60570  -0.60416  -0.59218
 Alpha  occ. eigenvalues --   -0.57944  -0.57783  -0.57272  -0.56675  -0.56613
 Alpha  occ. eigenvalues --   -0.55848  -0.54944  -0.54206  -0.53457  -0.53157
 Alpha  occ. eigenvalues --   -0.52189  -0.51851  -0.50162  -0.50056  -0.49689
 Alpha  occ. eigenvalues --   -0.49475  -0.48509  -0.47694  -0.45496  -0.44981
 Alpha  occ. eigenvalues --   -0.44266  -0.42724  -0.40985  -0.38647  -0.33443
 Alpha  occ. eigenvalues --   -0.33003  -0.31072  -0.29189
 Alpha virt. eigenvalues --    0.09021   0.13005   0.13862   0.16808   0.21198
 Alpha virt. eigenvalues --    0.22326   0.23375   0.24188   0.24647   0.25404
 Alpha virt. eigenvalues --    0.25695   0.27470   0.28063   0.28396   0.29067

 Mulliken atomic charges:
              1
     1  O   -0.652356
     2  C   -0.190490
     3  C    0.495528
     4  C   -0.384234
     5  C    0.519296
     6  N   -0.928034
     7  C   -0.191797
     8  O   -0.619820
     9  C   -0.284585
    10  O   -0.684902
    11  N   -0.686422
    12  C    0.867303
    13  C    0.684539
    14  O   -0.733991
    15  O   -0.592710
    16  C   -0.036260
    17  C   -0.260892
    18  C    0.002417
    19  C   -0.492926
    20  C    0.348323
    21  C   -0.000240
    22  C   -0.005831
    23  C    0.015958
    24  C   -0.521334
    25  C   -0.218333
    26  C    0.322849
    27  C   -0.348321
    28  H    0.221003
    29  H    0.241506
    30  H    0.226157
    31  H    0.176507
    32  H    0.175282
    33  H    0.159953
    34  H    0.146049
    35  H    0.155770
    36  H    0.176542
    37  H    0.172344
    38  H    0.194574
    39  H    0.172368
    40  H    0.212781
    41  H    0.445107
    42  H    0.164615
    43  H    0.164148
    44  H    0.202387
    45  H    0.412403
    46  H    0.224531
    47  H    0.169457
    48  H    0.170105
    49  H    0.193674
 Sum of Mulliken charges=   0.00000

 Dipole moment (field-independent basis, Debye):
    X=    -3.9981    Y=     2.5470    Z=     1.5689  Tot=     4.9934
 Quadrupole moment (field-independent basis, Debye-Ang):
   XX=  -109.0414   YY=  -155.2570   ZZ=  -158.5744
   XY=    13.8208   XZ=    -5.6769   YZ=    -2.2772

 1\1\GINC-COMPUTE-2-8\FOpt\RHF\6-31G(d)\C20H22N2O5\DAVE\08-Jun-2016\0\\
 #HF/6-31G* SCF=tight Test Pop=MK iop(6/33=2) iop(6/42=6) opt\\remark l
 ine goes here\\0,1\O,2.9835441838,9.9020829905,-8.2561795908\C,3.67842
 79407,11.017992918,-8.745431783\C,1.7253999262,9.6737771228,-8.6536220
 716\C,1.1364962247,8.530095551,-8.0940071714\C,-0.1525206822,8.1873832
 97,-8.4228588419\N,-2.7779934814,9.6133075418,-10.6349988813\C,-0.1058
 79345,6.2718298644,-7.0269077142\O,-0.7677455638,7.1182775383,-7.92520
 39069\C,-0.8936866184,8.9903347042,-9.3311189571\O,-4.7789252504,14.07

 Normal termination of Gaussian 03 at Wed Jun  8 15:27:02 2016.
