 Gaussian 03, Revision D.02,
 Gaussian 03:  AM64L-G03RevD.02  1-Mar-2006

 ------------------------------------------------------------
 #HF/6-31G* SCF=tight Test Pop=MK iop(6/33=2) iop(6/42=6) opt
 ------------------------------------------------------------

 ---------------------
 remark line goes here
 ---------------------
 Symbolic Z-matrix:
 Charge = -1 Multiplicity = 1

 SCF Done:  E(RHF) =  -1332.66535832     A.U. after   16 cycles
 SCF Done:  E(RHF) =  -1332.69127609     A.U. after   14 cycles
 SCF Done:  E(RHF) =  -1332.69556075     A.U. after   17 cycles
 SCF Done:  E(RHF) =  -1332.69506891     A.U. after   15 cycles
 SCF Done:  E(RHF) =  -1332.69458737     A.U. after   16 cycles
 SCF Done:  E(RHF) =  -1332.69368659     A.U. after   13 cycles
 SCF Done:  E(RHF) =  -1332.69568925     A.U. after   13 cycles
 SCF Done:  E(RHF) =  -1332.69611501     A.U. after   14 cycles
 SCF Done:  E(RHF) =  -1332.69631007     A.U. after   13 cycles
 SCF Done:  E(RHF) =  -1332.69639385     A.U. after   12 cycles
 SCF Done:  E(RHF) =  -1332.69668839     A.U. after   12 cycles
 SCF Done:  E(RHF) =  -1332.69696859     A.U. after   14 cycles
 SCF Done:  E(RHF) =  -1332.69704978     A.U. after   13 cycles
 SCF Done:  E(RHF) =  -1332.69714329     A.U. after   13 cycles
 SCF Done:  E(RHF) =  -1332.69724786     A.U. after   12 cycles
 SCF Done:  E(RHF) =  -1332.69731524     A.U. after   12 cycles
 SCF Done:  E(RHF) =  -1332.69732303     A.U. after   14 cycles
 SCF Done:  E(RHF) =  -1332.69732612     A.U. after   11 cycles
 SCF Done:  E(RHF) =  -1332.69732656     A.U. after   13 cycles
 SCF Done:  E(RHF) =  -1332.69732663     A.U. after    7 cycles
 Optimization completed.
    -- Stationary point found.

                         Standard orientation:
 ---------------------------------------------------------------------
 Center     Atomic     Atomic              Coordinates (Angstroms)
 Number     Number      Type              X           Y           Z
 ---------------------------------------------------------------------
    1          6             0       -5.268976   -1.326813    2.891655
    2          6             0       -4.372225   -1.846464    1.766893
    3          6             0       -3.997449   -0.774366    0.739297
    4          6             0       -3.199407    0.397418    1.347459
    5          6             0       -2.190136    0.985735    0.350736
    6          7             0       -1.602377    2.178019    0.910447
    7          6             0       -0.956097    3.157109    0.158528
    8          6             0       -0.991209    3.203537   -1.233058
    9          6             0       -0.366660    4.237644   -1.914112
   10          6             0        0.310052    5.236425   -1.240408
   11          6             0        0.356362    5.186040    0.145693
   12          6             0       -0.268394    4.168728    0.836367
   13          6             0       -1.231991   -0.144959    0.006663
   14          6             0        0.145534   -0.078753    0.109224
   15          6             0        0.950740   -1.198826   -0.113308
   16          6             0        0.318399   -2.400768   -0.418859
   17          6             0       -1.060773   -2.483991   -0.509239
   18          6             0       -1.837442   -1.354478   -0.325128
   19          7             0       -3.259172   -1.367277   -0.391421
   20          6             0       -3.984438   -1.804472   -1.460767
   21          6             0       -3.253309   -2.203686   -2.727991
   22          8             0       -5.187638   -1.860507   -1.422979
   23          6             0        2.432885   -1.118169   -0.001265
   24          6             0        3.037688   -0.402132    1.029895
   25          6             0        4.416524   -0.342925    1.138322
   26          6             0        5.237260   -0.990714    0.223632
   27          6             0        4.634265   -1.700652   -0.807079
   28          6             0        3.256032   -1.766959   -0.919705
   29          6             0        6.779767   -0.925789    0.351156
   30          8             0        7.192039   -0.269867    1.307379
   31          1             0       -4.908063   -0.381496    0.313119
   32          1             0       -2.741030    1.276449   -0.536302
   33          1             0       -5.551759   -2.135171    3.558793
   34          1             0       -4.775907   -0.567790    3.491017
   35          1             0       -6.182821   -0.894800    2.492907
   36          1             0       -4.886551   -2.643133    1.241433
   37          1             0       -3.461899   -2.270974    2.183724
   38          1             0       -3.884130    1.172988    1.670693
   39          1             0       -2.650469    0.065423    2.225494
   40          1             0       -1.198900    2.040296    1.811762
   41          1             0       -1.480973    2.431894   -1.794701
   42          1             0       -0.403719    4.245750   -2.989467
   43          1             0        0.801010    6.027234   -1.777695
   44          1             0        0.884840    5.945328    0.695057
   45          1             0       -0.230837    4.149225    1.912232
   46          1             0        0.615537    0.857062    0.343450
   47          1             0        0.908983   -3.288331   -0.551268
   48          1             0       -1.529155   -3.431699   -0.704464
   49          1             0       -2.366120   -1.614476   -2.911883
   50          1             0       -2.960209   -3.246278   -2.679958
   51          1             0       -3.954093   -2.089241   -3.542942
   52          1             0        2.425180    0.089865    1.767052
   53          1             0        4.886425    0.198778    1.936899
   54          1             0        5.272104   -2.192093   -1.516772
   55          1             0        2.814343   -2.306964   -1.740677
   56          8             0        7.396480   -1.539546   -0.519186
 ---------------------------------------------------------------------

 The electronic state is 1-A.
 Alpha  occ. eigenvalues --  -20.46294 -20.29818 -20.29814 -15.53141 -15.50906
 Alpha  occ. eigenvalues --  -11.28991 -11.21749 -11.21505 -11.20837 -11.20519
 Alpha  occ. eigenvalues --  -11.17268 -11.17257 -11.17227 -11.17220 -11.17020
 Alpha  occ. eigenvalues --  -11.16975 -11.16690 -11.16352 -11.16292 -11.16152
 Alpha  occ. eigenvalues --  -11.16003 -11.15873 -11.15854 -11.15684 -11.14484
 Alpha  occ. eigenvalues --  -11.13091 -11.11573 -11.11537 -11.09726 -11.09718
 Alpha  occ. eigenvalues --  -11.08478  -1.33266  -1.20899  -1.18817  -1.18775
 Alpha  occ. eigenvalues --   -1.08933  -1.08469  -1.07811  -1.03398  -1.02790
 Alpha  occ. eigenvalues --   -0.99193  -0.95538  -0.95309  -0.94588  -0.94159
 Alpha  occ. eigenvalues --   -0.92143  -0.89145  -0.88390  -0.85086  -0.80842
 Alpha  occ. eigenvalues --   -0.78527  -0.77061  -0.76513  -0.74488  -0.72846
 Alpha  occ. eigenvalues --   -0.70275  -0.69704  -0.68434  -0.65717  -0.62539
 Alpha  occ. eigenvalues --   -0.61781  -0.61422  -0.60343  -0.59938  -0.58934
 Alpha  occ. eigenvalues --   -0.57021  -0.56575  -0.55645  -0.55139  -0.54266
 Alpha  occ. eigenvalues --   -0.53763  -0.53482  -0.52436  -0.52284  -0.51256
 Alpha  occ. eigenvalues --   -0.50815  -0.50077  -0.49799  -0.48653  -0.48331
 Alpha  occ. eigenvalues --   -0.47612  -0.46918  -0.46359  -0.46099  -0.45651
 Alpha  occ. eigenvalues --   -0.44891  -0.44453  -0.43415  -0.43227  -0.42459
 Alpha  occ. eigenvalues --   -0.42420  -0.41636  -0.41008  -0.40426  -0.39585
 Alpha  occ. eigenvalues --   -0.38363  -0.36549  -0.36169  -0.35648  -0.35505
 Alpha  occ. eigenvalues --   -0.33015  -0.27614  -0.26696  -0.25522  -0.22637
 Alpha  occ. eigenvalues --   -0.21487  -0.21429  -0.20803  -0.19523  -0.18601
 Alpha virt. eigenvalues --    0.18914   0.20680   0.20878   0.22533   0.25865
 Alpha virt. eigenvalues --    0.26626   0.28061   0.28727   0.29329   0.29396
 Alpha virt. eigenvalues --    0.30243   0.31483   0.33194   0.34253   0.34675

 Mulliken atomic charges:
              1
     1  C   -0.496674
     2  C   -0.304280
     3  C    0.074318
     4  C   -0.354150
     5  C    0.064754
     6  N   -0.839633
     7  C    0.375836
     8  C   -0.265969
     9  C   -0.176024
    10  C   -0.231066
    11  C   -0.175152
    12  C   -0.265969
    13  C   -0.006281
    14  C   -0.262815
    15  C    0.027054
    16  C   -0.229246
    17  C   -0.206415
    18  C    0.280376
    19  N   -0.803084
    20  C    0.747147
    21  C   -0.581095
    22  O   -0.625072
    23  C    0.008097
    24  C   -0.222109
    25  C   -0.206398
    26  C   -0.135223
    27  C   -0.206568
    28  C   -0.227097
    29  C    0.783146
    30  O   -0.742690
    31  H    0.211276
    32  H    0.190477
    33  H    0.161583
    34  H    0.158796
    35  H    0.160892
    36  H    0.185572
    37  H    0.161526
    38  H    0.188187
    39  H    0.165902
    40  H    0.365572
    41  H    0.203500
    42  H    0.193538
    43  H    0.189130
    44  H    0.195231
    45  H    0.189011
    46  H    0.230326
    47  H    0.214558
    48  H    0.200923
    49  H    0.201469
    50  H    0.190949
    51  H    0.200747
    52  H    0.165951
    53  H    0.224530
    54  H    0.224722
    55  H    0.170542
    56  O   -0.742627
 Sum of Mulliken charges=  -1.00000

 Dipole moment (field-independent basis, Debye):
    X=   -26.6378    Y=     3.8470    Z=    -0.3786  Tot=    26.9168
 Quadrupole moment (field-independent basis, Debye-Ang):
   XX=  -446.2197   YY=  -191.1906   ZZ=  -181.9685
   XY=    24.2810   XZ=   -18.7030   YZ=     1.7129

 Normal termination of Gaussian 03 at Thu Sep 24 02:31:48 2015.
