 Gaussian 03, Revision D.02,
 Gaussian 03:  AM64L-G03RevD.02  1-Mar-2006

 ------------------------------------------------------------
 #HF/6-31G* SCF=tight Test Pop=MK iop(6/33=2) iop(6/42=6) opt
 ------------------------------------------------------------

 ---------------------
 remark line goes here
 ---------------------
 Symbolic Z-matrix:
 Charge =  1 Multiplicity = 1

 SCF Done:  E(RHF) =  -1395.04115983     A.U. after   16 cycles
 SCF Done:  E(RHF) =  -1395.06312707     A.U. after   13 cycles
 SCF Done:  E(RHF) =  -1395.06653958     A.U. after   13 cycles
 SCF Done:  E(RHF) =  -1395.06605617     A.U. after   13 cycles
 SCF Done:  E(RHF) =  -1395.06697684     A.U. after   12 cycles
 SCF Done:  E(RHF) =  -1395.06753877     A.U. after   13 cycles
 SCF Done:  E(RHF) =  -1395.06808983     A.U. after   13 cycles
 SCF Done:  E(RHF) =  -1395.06837222     A.U. after   13 cycles
 SCF Done:  E(RHF) =  -1395.06851381     A.U. after   12 cycles
 SCF Done:  E(RHF) =  -1395.06857409     A.U. after   12 cycles
 SCF Done:  E(RHF) =  -1395.06858848     A.U. after   12 cycles
 SCF Done:  E(RHF) =  -1395.06859943     A.U. after   14 cycles
 SCF Done:  E(RHF) =  -1395.06860419     A.U. after   11 cycles
 SCF Done:  E(RHF) =  -1395.06860572     A.U. after   10 cycles
 SCF Done:  E(RHF) =  -1395.06860630     A.U. after    9 cycles
 SCF Done:  E(RHF) =  -1395.06860647     A.U. after    8 cycles
 SCF Done:  E(RHF) =  -1395.06860650     A.U. after    6 cycles
 Optimization completed.
    -- Stationary point found.

                         Standard orientation:
 ---------------------------------------------------------------------
 Center     Atomic     Atomic              Coordinates (Angstroms)
 Number     Number      Type              X           Y           Z
 ---------------------------------------------------------------------
    1          6             0       -4.860799   -2.896978    2.242317
    2          6             0       -4.890753   -1.782820    1.200228
    3          6             0       -4.363763   -0.450907    1.767265
    4          6             0       -3.680561    0.400729    0.691081
    5          7             0       -3.281946    1.684421    1.228796
    6          6             0       -3.316832    2.850876    0.458411
    7          6             0       -3.432549    4.085427    1.101077
    8          6             0       -3.437116    5.259582    0.375569
    9          6             0       -3.327468    5.239472   -1.007900
   10          6             0       -3.209800    4.019476   -1.646248
   11          6             0       -3.199600    2.831987   -0.928632
   12          6             0       -2.514201   -0.432670    0.190986
   13          6             0       -1.209639    0.015634    0.126497
   14          6             0       -0.177581   -0.827353   -0.282284
   15          6             0       -0.479537   -2.148789   -0.588901
   16          6             0       -1.778150   -2.617092   -0.495856
   17          6             0       -2.804571   -1.756820   -0.137409
   18          7             0       -4.150424   -2.166571   -0.022438
   19          6             0       -4.851031   -2.858461   -0.983419
   20          6             0       -4.229094   -3.070801   -2.349376
   21          8             0       -5.956521   -3.263857   -0.759431
   22          6             0        1.219308   -0.323253   -0.370561
   23          6             0        2.044352   -0.678429   -1.438851
   24          6             0        3.337670   -0.201718   -1.527489
   25          6             0        3.853552    0.638543   -0.545740
   26          6             0        5.262514    1.153025   -0.657102
   27          6             0        7.672975    0.490340   -0.711382
   28          6             0        8.675882   -0.612513   -0.393219
   29          6             0        8.666355   -0.971894    1.092897
   30          6             0        7.247864   -1.317702    1.546281
   31          6             0        6.264369   -0.202609    1.212295
   32          6             0        3.035108    1.004964    0.514757
   33          6             0        1.739347    0.529060    0.601881
   34          1             0       -5.910044   -1.637687    0.880426
   35          1             0       -4.385256    0.541825   -0.125491
   36          1             0       -5.410059   -2.597725    3.130211
   37          1             0       -5.317616   -3.794672    1.847452
   38          1             0       -3.839799   -3.121215    2.537417
   39          1             0       -5.198240    0.089757    2.203040
   40          1             0       -3.645200   -0.632198    2.561850
   41          1             0       -3.602858    1.833444    2.159941
   42          1             0       -3.523799    4.118661    2.173576
   43          1             0       -3.534344    6.196880    0.894101
   44          1             0       -3.338042    6.154543   -1.570920
   45          1             0       -3.124791    3.980296   -2.717918
   46          1             0       -3.094159    1.901796   -1.454528
   47          1             0       -1.007233    1.039202    0.375788
   48          1             0        0.302982   -2.833807   -0.861755
   49          1             0       -1.986658   -3.652871   -0.685141
   50          1             0       -3.560791   -2.275673   -2.648527
   51          1             0       -3.682392   -4.006868   -2.370081
   52          1             0       -5.045964   -3.150369   -3.052079
   53          1             0        1.658386   -1.301926   -2.223407
   54          1             0        3.933027   -0.464792   -2.387016
   55          1             0        5.498964    1.426121   -1.675966
   56          1             0        5.437493    2.011084   -0.024088
   57          1             0        7.918768    1.413384   -0.202500
   58          1             0        7.619762    0.687434   -1.772753
   59          1             0        8.448567   -1.490644   -0.993151
   60          1             0        9.655714   -0.270056   -0.704930
   61          1             0        9.330333   -1.807554    1.276171
   62          1             0        9.043718   -0.135321    1.675059
   63          1             0        6.917951   -2.243236    1.080149
   64          1             0        7.211061   -1.481317    2.616996
   65          1             0        6.520129    0.717765    1.721554
   66          1             0        5.250098   -0.469600    1.463335
   67          1             0        3.402018    1.669742    1.277852
   68          1             0        1.130453    0.815486    1.438561
   69          7             0        6.290566    0.111793   -0.258983
   70          1             0        6.035096   -0.736370   -0.742458
 ---------------------------------------------------------------------

 The electronic state is 1-A.
 Alpha  occ. eigenvalues --  -20.58002 -15.84260 -15.65313 -15.62937 -11.43806
 Alpha  occ. eigenvalues --  -11.43679 -11.43219 -11.40648 -11.37561 -11.37400
 Alpha  occ. eigenvalues --  -11.36919 -11.36195 -11.35905 -11.35709 -11.35615
 Alpha  occ. eigenvalues --  -11.35063 -11.34389 -11.34196 -11.33869 -11.33214
 Alpha  occ. eigenvalues --  -11.32726 -11.32539 -11.31668 -11.31110 -11.31056
 Alpha  occ. eigenvalues --  -11.30980 -11.29529 -11.28564 -11.28550 -11.28407
 Alpha  occ. eigenvalues --  -11.27705 -11.27614 -11.27008 -11.26518  -1.48501
 Alpha  occ. eigenvalues --   -1.45209  -1.33351  -1.30800  -1.28721  -1.24645
 Alpha  occ. eigenvalues --   -1.23050  -1.20091  -1.19615  -1.17872  -1.14418
 Alpha  occ. eigenvalues --   -1.13657  -1.12139  -1.10005  -1.07452  -1.06799
 Alpha  occ. eigenvalues --   -1.06491  -1.05333  -1.04298  -1.02958  -1.01620
 Alpha  occ. eigenvalues --   -0.96943  -0.95617  -0.94743  -0.93808  -0.91348
 Alpha  occ. eigenvalues --   -0.89681  -0.88702  -0.86667  -0.86589  -0.85173
 Alpha  occ. eigenvalues --   -0.84011  -0.82433  -0.82281  -0.79582  -0.78782
 Alpha  occ. eigenvalues --   -0.77380  -0.77318  -0.76200  -0.74697  -0.74250
 Alpha  occ. eigenvalues --   -0.73855  -0.73703  -0.73234  -0.72335  -0.71769
 Alpha  occ. eigenvalues --   -0.71251  -0.70665  -0.70468  -0.69399  -0.69235
 Alpha  occ. eigenvalues --   -0.68771  -0.68070  -0.66686  -0.66656  -0.66479
 Alpha  occ. eigenvalues --   -0.65772  -0.64848  -0.64588  -0.63767  -0.63637
 Alpha  occ. eigenvalues --   -0.62423  -0.62210  -0.61924  -0.61682  -0.61610
 Alpha  occ. eigenvalues --   -0.61205  -0.61127  -0.60625  -0.59362  -0.59118
 Alpha  occ. eigenvalues --   -0.58159  -0.57094  -0.56498  -0.56031  -0.55275
 Alpha  occ. eigenvalues --   -0.54160  -0.53934  -0.53353  -0.49053  -0.48248
 Alpha  occ. eigenvalues --   -0.46793  -0.45381  -0.44482  -0.41151  -0.38846
 Alpha  occ. eigenvalues --   -0.37476  -0.34616
 Alpha virt. eigenvalues --   -0.00656   0.01946   0.05145   0.06266   0.06943
 Alpha virt. eigenvalues --    0.08468   0.09228   0.10187   0.11029   0.11686
 Alpha virt. eigenvalues --    0.12854   0.13882   0.14399   0.14760   0.15245

 Mulliken atomic charges:
              1
     1  C   -0.481713
     2  C    0.065454
     3  C   -0.387407
     4  C    0.079877
     5  N   -0.838403
     6  C    0.351089
     7  C   -0.274118
     8  C   -0.179783
     9  C   -0.230203
    10  C   -0.180215
    11  C   -0.271277
    12  C   -0.025363
    13  C   -0.231642
    14  C    0.002860
    15  C   -0.221380
    16  C   -0.207721
    17  C    0.322379
    18  N   -0.813029
    19  C    0.747770
    20  C   -0.586440
    21  O   -0.588154
    22  C    0.028276
    23  C   -0.208203
    24  C   -0.223344
    25  C   -0.018440
    26  C   -0.197180
    27  C   -0.174465
    28  C   -0.354573
    29  C   -0.336074
    30  C   -0.355729
    31  C   -0.176616
    32  C   -0.214071
    33  C   -0.209153
    34  H    0.228015
    35  H    0.202760
    36  H    0.167016
    37  H    0.206488
    38  H    0.155441
    39  H    0.194039
    40  H    0.180527
    41  H    0.375729
    42  H    0.195391
    43  H    0.208587
    44  H    0.204581
    45  H    0.204173
    46  H    0.203628
    47  H    0.248033
    48  H    0.210315
    49  H    0.227852
    50  H    0.189286
    51  H    0.195834
    52  H    0.225063
    53  H    0.238721
    54  H    0.209978
    55  H    0.245733
    56  H    0.243476
    57  H    0.230841
    58  H    0.237786
    59  H    0.192422
    60  H    0.231499
    61  H    0.222769
    62  H    0.190403
    63  H    0.193331
    64  H    0.230787
    65  H    0.223690
    66  H    0.257121
    67  H    0.220240
    68  H    0.243817
    69  N   -0.683410
    70  H    0.435031
 Sum of Mulliken charges=   1.00000

 Dipole moment (field-independent basis, Debye):
    X=    28.3980    Y=     0.8174    Z=     0.5799  Tot=    28.4157
 Quadrupole moment (field-independent basis, Debye-Ang):
   XX=   -15.4561   YY=  -191.7117   ZZ=  -180.8426
   XY=   -14.7534   XZ=   -10.0491   YZ=     5.3627

 Normal termination of Gaussian 03 at Thu Sep 24 03:04:49 2015.
