 Gaussian 03, Revision D.02,
 Gaussian 03:  AM64L-G03RevD.02  1-Mar-2006

 ------------------------------------------------------------
 #HF/6-31G* SCF=tight Test Pop=MK iop(6/33=2) iop(6/42=6) opt
 ------------------------------------------------------------

 ---------------------
 remark line goes here
 ---------------------
 Symbolic Z-matrix:
 Charge =  0 Multiplicity = 1

 SCF Done:  E(RHF) =  -1106.58647882     A.U. after   16 cycles
 SCF Done:  E(RHF) =  -1106.60510720     A.U. after   14 cycles
 SCF Done:  E(RHF) =  -1106.60658910     A.U. after   15 cycles
 SCF Done:  E(RHF) =  -1106.60640676     A.U. after   14 cycles
 SCF Done:  E(RHF) =  -1106.60690944     A.U. after   13 cycles
 SCF Done:  E(RHF) =  -1106.60725437     A.U. after   13 cycles
 SCF Done:  E(RHF) =  -1106.60735703     A.U. after   13 cycles
 SCF Done:  E(RHF) =  -1106.60756093     A.U. after   16 cycles
 SCF Done:  E(RHF) =  -1106.60769086     A.U. after   16 cycles
 SCF Done:  E(RHF) =  -1106.60784848     A.U. after   13 cycles
 SCF Done:  E(RHF) =  -1106.60799825     A.U. after   13 cycles
 SCF Done:  E(RHF) =  -1106.60805706     A.U. after   13 cycles
 SCF Done:  E(RHF) =  -1106.60808107     A.U. after   15 cycles
 SCF Done:  E(RHF) =  -1106.60809515     A.U. after   12 cycles
 SCF Done:  E(RHF) =  -1106.60810357     A.U. after   12 cycles
 SCF Done:  E(RHF) =  -1106.60810561     A.U. after   13 cycles
 SCF Done:  E(RHF) =  -1106.60810616     A.U. after    9 cycles
 SCF Done:  E(RHF) =  -1106.60810634     A.U. after    8 cycles
 SCF Done:  E(RHF) =  -1106.60810638     A.U. after    8 cycles
 Optimization completed.
    -- Stationary point found.

                         Standard orientation:
 ---------------------------------------------------------------------
 Center     Atomic     Atomic              Coordinates (Angstroms)
 Number     Number      Type              X           Y           Z
 ---------------------------------------------------------------------
    1          6             0        3.731174   -1.767560   -2.133983
    2          6             0        3.329555   -0.778669   -1.043412
    3          6             0        2.461507    0.369254   -1.595524
    4          6             0        1.450131    0.873767   -0.558564
    5          7             0        0.727032    2.020167   -1.067574
    6          6             0        0.350367    3.084996   -0.250907
    7          6             0        0.116443    2.928063    1.113446
    8          6             0       -0.283197    4.010533    1.882040
    9          6             0       -0.465089    5.260364    1.319327
   10          6             0       -0.240760    5.415969   -0.040945
   11          6             0        0.162779    4.348147   -0.817126
   12          6             0        0.564969   -0.316945   -0.235127
   13          6             0       -0.815520   -0.306843   -0.298768
   14          6             0       -1.558731   -1.463048   -0.063284
   15          6             0       -0.874358   -2.643636    0.201526
   16          6             0        0.509402   -2.671191    0.241154
   17          6             0        1.232010   -1.505189    0.054865
   18          7             0        2.649164   -1.458315    0.076824
   19          6             0        3.436215   -1.937096    1.090380
   20          6             0        2.780234   -2.430403    2.365021
   21          8             0        4.633954   -1.946929    0.991884
   22          6             0       -3.048205   -1.437622   -0.116010
   23          6             0       -3.806623   -2.096072    0.848933
   24          6             0       -5.190293   -2.076346    0.800502
   25          6             0       -5.842912   -1.395785   -0.214097
   26          6             0       -5.100148   -0.735501   -1.179235
   27          6             0       -3.716735   -0.756758   -1.130710
   28          1             0        4.224857   -0.354301   -0.618101
   29          1             0        1.999736    1.157626    0.336285
   30          1             0        2.857817   -2.271989   -2.536528
   31          1             0        4.228409   -1.250652   -2.950155
   32          1             0        4.412053   -2.509040   -1.736136
   33          1             0        3.116937    1.176943   -1.908262
   34          1             0        1.909735    0.041594   -2.472332
   35          1             0        1.024664    2.309195   -1.972501
   36          1             0        0.226001    1.965323    1.575790
   37          1             0       -0.457716    3.864721    2.933560
   38          1             0       -0.776450    6.093755    1.922140
   39          1             0       -0.375979    6.378482   -0.502183
   40          1             0        0.335399    4.487257   -1.871030
   41          1             0       -1.316220    0.616002   -0.519170
   42          1             0       -1.420987   -3.558612    0.340155
   43          1             0        1.021686   -3.601816    0.399876
   44          1             0        2.551225   -3.486956    2.283686
   45          1             0        1.869310   -1.903356    2.611061
   46          1             0        3.506103   -2.307366    3.156077
   47          1             0       -3.311936   -2.609509    1.653804
   48          1             0       -5.756968   -2.585744    1.559568
   49          1             0       -6.917420   -1.379202   -0.251770
   50          1             0       -5.596602   -0.208511   -1.974528
   51          1             0       -3.151926   -0.255955   -1.896137
 ---------------------------------------------------------------------

 The electronic state is 1-A.
 Alpha  occ. eigenvalues --  -20.52186 -15.59282 -15.57056 -11.34873 -11.27838
 Alpha  occ. eigenvalues --  -11.27787 -11.27641 -11.27039 -11.24556 -11.24322
 Alpha  occ. eigenvalues --  -11.24103 -11.24000 -11.23773 -11.23710 -11.23307
 Alpha  occ. eigenvalues --  -11.23293 -11.23247 -11.23186 -11.23130 -11.23092
 Alpha  occ. eigenvalues --  -11.23084 -11.23040 -11.22756 -11.22206 -11.21942
 Alpha  occ. eigenvalues --  -11.21589 -11.21234  -1.39290  -1.27179  -1.24953
 Alpha  occ. eigenvalues --   -1.17109  -1.14601  -1.13763  -1.08449  -1.06087
 Alpha  occ. eigenvalues --   -1.03291  -1.01637  -1.01252  -1.00697  -0.99585
 Alpha  occ. eigenvalues --   -0.98277  -0.95673  -0.88700  -0.86478  -0.84955
 Alpha  occ. eigenvalues --   -0.83417  -0.82397  -0.81102  -0.80594  -0.78311
 Alpha  occ. eigenvalues --   -0.75419  -0.71782  -0.71090  -0.68354  -0.68185
 Alpha  occ. eigenvalues --   -0.67819  -0.66533  -0.65951  -0.63730  -0.62904
 Alpha  occ. eigenvalues --   -0.62152  -0.61743  -0.61313  -0.60870  -0.60005
 Alpha  occ. eigenvalues --   -0.58987  -0.58704  -0.58572  -0.58234  -0.58168
 Alpha  occ. eigenvalues --   -0.56701  -0.56004  -0.55602  -0.54020  -0.53301
 Alpha  occ. eigenvalues --   -0.51954  -0.51496  -0.51073  -0.50836  -0.49961
 Alpha  occ. eigenvalues --   -0.49568  -0.48830  -0.48527  -0.48286  -0.47997
 Alpha  occ. eigenvalues --   -0.47477  -0.42649  -0.42052  -0.40001  -0.34975
 Alpha  occ. eigenvalues --   -0.33959  -0.33513  -0.33228  -0.29481  -0.28855
 Alpha virt. eigenvalues --    0.10699   0.13544   0.14327   0.14639   0.16472
 Alpha virt. eigenvalues --    0.17236   0.20832   0.22597   0.23712   0.24202
 Alpha virt. eigenvalues --    0.24511   0.24647   0.26425   0.27712   0.28600

 Mulliken atomic charges:
              1
     1  C   -0.480562
     2  C    0.069047
     3  C   -0.384551
     4  C    0.081353
     5  N   -0.835576
     6  C    0.359344
     7  C   -0.267308
     8  C   -0.178531
     9  C   -0.231637
    10  C   -0.178501
    11  C   -0.274009
    12  C   -0.021017
    13  C   -0.238693
    14  C    0.011404
    15  C   -0.224464
    16  C   -0.207704
    17  C    0.301939
    18  N   -0.805116
    19  C    0.747820
    20  C   -0.583714
    21  O   -0.606546
    22  C    0.016914
    23  C   -0.217105
    24  C   -0.198474
    25  C   -0.202308
    26  C   -0.198484
    27  C   -0.214012
    28  H    0.220913
    29  H    0.194640
    30  H    0.161355
    31  H    0.157983
    32  H    0.197804
    33  H    0.182861
    34  H    0.180906
    35  H    0.372114
    36  H    0.208882
    37  H    0.200509
    38  H    0.196009
    39  H    0.199782
    40  H    0.189848
    41  H    0.243871
    42  H    0.213801
    43  H    0.214724
    44  H    0.193603
    45  H    0.194978
    46  H    0.213020
    47  H    0.205673
    48  H    0.202126
    49  H    0.202026
    50  H    0.202894
    51  H    0.210166
 Sum of Mulliken charges=   0.00000

 Dipole moment (field-independent basis, Debye):
    X=    -2.5169    Y=     0.3602    Z=    -1.0922  Tot=     2.7672
 Quadrupole moment (field-independent basis, Debye-Ang):
   XX=  -174.7092   YY=  -153.0508   ZZ=  -149.4447
   XY=     8.6123   XZ=    -7.6133   YZ=    -8.1838

 Normal termination of Gaussian 03 at Thu Sep 24 00:11:30 2015.
