 Gaussian 03, Revision D.02,
 Gaussian 03:  AM64L-G03RevD.02  1-Mar-2006

 ------------------------------------------------------------
 #HF/6-31G* SCF=tight Test Pop=MK iop(6/33=2) iop(6/42=6) opt
 ------------------------------------------------------------

 ---------------------
 remark line goes here
 ---------------------
 Symbolic Z-matrix:
 Charge =  0 Multiplicity = 1

 SCF Done:  E(RHF) =  -1220.46392576     A.U. after   16 cycles
 SCF Done:  E(RHF) =  -1220.48476626     A.U. after   13 cycles
 SCF Done:  E(RHF) =  -1220.48668574     A.U. after   14 cycles
 SCF Done:  E(RHF) =  -1220.48644124     A.U. after   15 cycles
 SCF Done:  E(RHF) =  -1220.48700759     A.U. after   12 cycles
 SCF Done:  E(RHF) =  -1220.48736329     A.U. after   14 cycles
 SCF Done:  E(RHF) =  -1220.48746433     A.U. after   13 cycles
 SCF Done:  E(RHF) =  -1220.48764370     A.U. after   14 cycles
 SCF Done:  E(RHF) =  -1220.48776879     A.U. after   14 cycles
 SCF Done:  E(RHF) =  -1220.48791813     A.U. after   13 cycles
 SCF Done:  E(RHF) =  -1220.48807002     A.U. after   13 cycles
 SCF Done:  E(RHF) =  -1220.48813872     A.U. after   12 cycles
 SCF Done:  E(RHF) =  -1220.48816532     A.U. after   13 cycles
 SCF Done:  E(RHF) =  -1220.48818102     A.U. after   12 cycles
 SCF Done:  E(RHF) =  -1220.48819065     A.U. after   12 cycles
 SCF Done:  E(RHF) =  -1220.48819320     A.U. after   10 cycles
 SCF Done:  E(RHF) =  -1220.48819382     A.U. after    9 cycles
 SCF Done:  E(RHF) =  -1220.48819404     A.U. after    8 cycles
 SCF Done:  E(RHF) =  -1220.48819409     A.U. after    7 cycles
 Optimization completed.
    -- Stationary point found.

                         Standard orientation:
 ---------------------------------------------------------------------
 Center     Atomic     Atomic              Coordinates (Angstroms)
 Number     Number      Type              X           Y           Z
 ---------------------------------------------------------------------
    1          6             0       -7.625243   -0.627864    0.462179
    2          8             0       -6.691202   -0.118567   -0.445833
    3          6             0       -5.383905   -0.412322   -0.295643
    4          6             0       -4.863008   -1.202151    0.715448
    5          6             0       -3.494303   -1.436291    0.769189
    6          6             0       -2.622219   -0.901890   -0.165684
    7          6             0       -3.170688   -0.107290   -1.176618
    8          6             0       -4.523414    0.135141   -1.244360
    9          6             0       -1.157616   -1.163686   -0.097091
   10          6             0       -0.670371   -2.438869    0.166838
   11          6             0        0.691087   -2.684851    0.224494
   12          6             0        1.591441   -1.647591    0.053307
   13          7             0        2.998260   -1.825409    0.091227
   14          6             0        3.789740   -1.259687   -1.019035
   15          6             0        4.040706   -2.296909   -2.109782
   16          6             0        3.120743    0.013127   -1.574716
   17          6             0        2.190324    0.668256   -0.546069
   18          7             0        1.664596    1.916886   -1.056739
   19          6             0        1.453489    3.025520   -0.239191
   20          6             0        1.183174    2.903770    1.122080
   21          6             0        0.953011    4.033750    1.891685
   22          6             0        0.978356    5.298329    1.333085
   23          6             0        1.238780    5.420292   -0.024188
   24          6             0        1.475330    4.304201   -0.801294
   25          6             0        1.123895   -0.368059   -0.238189
   26          6             0       -0.236719   -0.139094   -0.316228
   27          6             0        3.687896   -2.422732    1.112203
   28          6             0        2.946646   -2.808545    2.377190
   29          8             0        4.870439   -2.621029    1.028214
   30          1             0        4.736577   -0.984042   -0.583058
   31          1             0        2.767890    0.858321    0.355970
   32          1             0       -7.633742   -1.712855    0.455960
   33          1             0       -7.431273   -0.276159    1.470092
   34          1             0       -8.589256   -0.264197    0.139599
   35          1             0       -5.495019   -1.632502    1.467769
   36          1             0       -3.108011   -2.034906    1.574704
   37          1             0       -2.528311    0.311955   -1.929850
   38          1             0       -4.940310    0.740515   -2.027580
   39          1             0       -1.356060   -3.257368    0.290322
   40          1             0        1.047623   -3.685552    0.383748
   41          1             0        4.622069   -1.863440   -2.918935
   42          1             0        4.591184   -3.138058   -1.708290
   43          1             0        3.102594   -2.655391   -2.522900
   44          1             0        3.899259    0.707841   -1.876526
   45          1             0        2.533935   -0.220209   -2.458924
   46          1             0        2.012475    2.157170   -1.957969
   47          1             0        1.132864    1.934410    1.580810
   48          1             0        0.746446    3.914407    2.940752
   49          1             0        0.797300    6.168856    1.936649
   50          1             0        1.263227    6.393428   -0.482309
   51          1             0        1.678847    4.417239   -1.852797
   52          1             0       -0.581677    0.852825   -0.535812
   53          1             0        2.128437   -2.143599    2.614910
   54          1             0        2.552935   -3.814778    2.288494
   55          1             0        3.673302   -2.804812    3.177045
 ---------------------------------------------------------------------

 The electronic state is 1-A.
 Alpha  occ. eigenvalues --  -20.58935 -20.52060 -15.59145 -15.56946 -11.34751
 Alpha  occ. eigenvalues --  -11.29800 -11.28316 -11.27714 -11.27551 -11.27550
 Alpha  occ. eigenvalues --  -11.26919 -11.24401 -11.23944 -11.23841 -11.23730
 Alpha  occ. eigenvalues --  -11.23657 -11.23550 -11.23468 -11.23428 -11.23100
 Alpha  occ. eigenvalues --  -11.23062 -11.23011 -11.22870 -11.22661 -11.22395
 Alpha  occ. eigenvalues --  -11.22114 -11.21850 -11.21505 -11.21137  -1.41868
 Alpha  occ. eigenvalues --   -1.39159  -1.27039  -1.24840  -1.16924  -1.14462
 Alpha  occ. eigenvalues --   -1.13645  -1.08326  -1.05983  -1.03212  -1.02274
 Alpha  occ. eigenvalues --   -1.01169  -1.00592  -0.99946  -0.98511  -0.96000
 Alpha  occ. eigenvalues --   -0.94045  -0.88579  -0.85632  -0.84953  -0.83597
 Alpha  occ. eigenvalues --   -0.82780  -0.80917  -0.80078  -0.78226  -0.75268
 Alpha  occ. eigenvalues --   -0.72560  -0.71629  -0.68797  -0.68500  -0.67876
 Alpha  occ. eigenvalues --   -0.67654  -0.66750  -0.66022  -0.65726  -0.63377
 Alpha  occ. eigenvalues --   -0.62865  -0.62534  -0.61253  -0.60883  -0.60294
 Alpha  occ. eigenvalues --   -0.59797  -0.59100  -0.58696  -0.58459  -0.58127
 Alpha  occ. eigenvalues --   -0.57983  -0.57341  -0.55915  -0.55720  -0.54731
 Alpha  occ. eigenvalues --   -0.53401  -0.52941  -0.52240  -0.51740  -0.51505
 Alpha  occ. eigenvalues --   -0.50932  -0.50451  -0.49455  -0.48998  -0.48406
 Alpha  occ. eigenvalues --   -0.48185  -0.47699  -0.47420  -0.46490  -0.42497
 Alpha  occ. eigenvalues --   -0.41864  -0.39715  -0.34073  -0.33942  -0.33467
 Alpha  occ. eigenvalues --   -0.33054  -0.28754  -0.28279
 Alpha virt. eigenvalues --    0.11350   0.13704   0.14031   0.14753   0.16626
 Alpha virt. eigenvalues --    0.18102   0.21017   0.22699   0.23819   0.23950
 Alpha virt. eigenvalues --    0.24585   0.24732   0.25899   0.26522   0.27888

 Mulliken atomic charges:
              1
     1  C   -0.186073
     2  O   -0.651800
     3  C    0.435568
     4  C   -0.287986
     5  C   -0.201327
     6  C   -0.009834
     7  C   -0.196064
     8  C   -0.250657
     9  C    0.020690
    10  C   -0.227211
    11  C   -0.206856
    12  C    0.299403
    13  N   -0.804504
    14  C    0.069204
    15  C   -0.480491
    16  C   -0.384402
    17  C    0.081297
    18  N   -0.835537
    19  C    0.359701
    20  C   -0.267234
    21  C   -0.178517
    22  C   -0.231718
    23  C   -0.178415
    24  C   -0.273998
    25  C   -0.019817
    26  C   -0.242090
    27  C    0.747815
    28  C   -0.583525
    29  O   -0.607437
    30  H    0.220680
    31  H    0.194286
    32  H    0.161006
    33  H    0.161793
    34  H    0.192498
    35  H    0.208220
    36  H    0.207931
    37  H    0.214085
    38  H    0.218018
    39  H    0.210926
    40  H    0.213684
    41  H    0.157695
    42  H    0.197339
    43  H    0.161468
    44  H    0.182468
    45  H    0.180844
    46  H    0.372048
    47  H    0.208923
    48  H    0.199989
    49  H    0.195666
    50  H    0.199634
    51  H    0.189829
    52  H    0.242288
    53  H    0.194871
    54  H    0.193161
    55  H    0.212464
 Sum of Mulliken charges=   0.00000

 Dipole moment (field-independent basis, Debye):
    X=    -3.1603    Y=     0.1097    Z=    -0.0911  Tot=     3.1635
 Quadrupole moment (field-independent basis, Debye-Ang):
   XX=  -177.7969   YY=  -167.6430   ZZ=  -161.5792
   XY=    17.6431   XZ=   -17.8868   YZ=    -6.8664

 Normal termination of Gaussian 03 at Wed Sep 23 21:43:27 2015.
