 Gaussian 03, Revision D.02,
 Gaussian 03:  AM64L-G03RevD.02  1-Mar-2006

 ------------------------------------------------------------
 #HF/6-31G* SCF=tight Test Pop=MK iop(6/33=2) iop(6/42=6) opt
 ------------------------------------------------------------

 ---------------------
 remark line goes here
 ---------------------
 Symbolic Z-matrix:
 Charge =  0 Multiplicity = 1

 SCF Done:  E(RHF) =  -2109.97326825     A.U. after   17 cycles
 SCF Done:  E(RHF) =  -2110.01420273     A.U. after   16 cycles
 SCF Done:  E(RHF) =  -2110.02830870     A.U. after   17 cycles
 SCF Done:  E(RHF) =  -2110.03674851     A.U. after   18 cycles
 SCF Done:  E(RHF) =  -2110.03570502     A.U. after   13 cycles
 SCF Done:  E(RHF) =  -2110.03776459     A.U. after   13 cycles
 SCF Done:  E(RHF) =  -2110.03814382     A.U. after   13 cycles
 SCF Done:  E(RHF) =  -2110.03846768     A.U. after   13 cycles
 SCF Done:  E(RHF) =  -2110.03869126     A.U. after   13 cycles
 SCF Done:  E(RHF) =  -2110.03883508     A.U. after   12 cycles
 SCF Done:  E(RHF) =  -2110.03891605     A.U. after   11 cycles
 SCF Done:  E(RHF) =  -2110.03892791     A.U. after   11 cycles
 SCF Done:  E(RHF) =  -2110.03893687     A.U. after   11 cycles
 SCF Done:  E(RHF) =  -2110.03894162     A.U. after   11 cycles
 SCF Done:  E(RHF) =  -2110.03894376     A.U. after    9 cycles
 SCF Done:  E(RHF) =  -2110.03894475     A.U. after    9 cycles
 SCF Done:  E(RHF) =  -2110.03894511     A.U. after    9 cycles
 SCF Done:  E(RHF) =  -2110.03894518     A.U. after    8 cycles
 SCF Done:  E(RHF) =  -2110.03894521     A.U. after    7 cycles
 SCF Done:  E(RHF) =  -2110.03894521     A.U. after    6 cycles
 Optimization completed.
    -- Stationary point found.

                         Standard orientation:
 ---------------------------------------------------------------------
 Center     Atomic     Atomic              Coordinates (Angstroms)
 Number     Number      Type              X           Y           Z
 ---------------------------------------------------------------------
    1          6             0       -0.531767    4.908822   -1.748973
    2          6             0       -1.520054    2.919716    3.896102
    3          6             0       -1.543028   -0.017445    2.767100
    4          6             0        2.603100   -3.647119    1.085195
    5          6             0        5.049797   -3.074274    0.752954
    6          6             0        3.705529   -1.912848    2.522421
    7          8             0        3.283742   -2.554065   -1.651767
    8         17             0       -5.347908   -3.572841   -0.892376
    9          6             0       -4.141956   -1.199161   -0.421852
   10          6             0       -2.688059   -3.076405   -0.816970
   11          6             0       -3.031823   -0.387088   -0.255404
   12          6             0       -1.589285   -2.254104   -0.660211
   13          6             0        2.784040   -0.221302   -1.654209
   14          7             0        0.464165   -0.321466   -0.937907
   15          7             0        1.174619    3.516007   -2.845655
   16          7             0        1.801045    2.316538   -2.644300
   17          8             0        3.292337   -1.445415    0.283094
   18         16             0       -0.453877    3.625678    1.410890
   19          6             0        3.134296   -1.553359   -1.028501
   20          6             0       -0.543082   -0.021116   -0.245538
   21          6             0       -3.959144   -2.540367   -0.695129
   22          6             0        0.357424    3.717153   -1.881991
   23          6             0       -1.746972   -0.902125   -0.367866
   24          6             0       -1.100451    2.456642    2.527006
   25          6             0       -1.120807    1.215618    2.003208
   26          6             0        1.348520    1.819490   -1.561819
   27          6             0       -0.628114    1.185919    0.632200
   28          6             0       -0.228946    2.404745    0.206711
   29          6             0        1.664565    0.504117   -0.913721
   30          7             0        0.414933    2.658843   -1.005105
   31          6             0        3.666935   -2.552543    1.137638
   32          1             0        1.970427    0.693403    0.110584
   33          1             0        3.678040    0.393498   -1.652296
   34          1             0        2.501878   -0.400841   -2.679993
   35          1             0       -0.600600   -2.655259   -0.771825
   36          1             0       -3.179347    0.657046   -0.048889
   37          1             0       -2.562485   -4.119650   -1.035422
   38          1             0       -5.132624   -0.793747   -0.343470
   39          1             0        4.429341   -1.106205    2.549335
   40          1             0        2.733834   -1.507229    2.782179
   41          1             0        3.981741   -2.648333    3.270085
   42          1             0        5.041612   -3.541847   -0.220437
   43          1             0        5.768520   -2.261329    0.744905
   44          1             0        5.377072   -3.805235    1.485423
   45          1             0        1.624937   -3.229012    1.300819
   46          1             0        2.572206   -4.125084    0.117284
   47          1             0        2.820579   -4.399585    1.836450
   48          1             0       -1.418645    0.129239    3.831862
   49          1             0       -2.578493   -0.278292    2.580499
   50          1             0       -0.939178   -0.871157    2.483950
   51          1             0       -2.231349    2.233068    4.334980
   52          1             0       -0.667764    2.999813    4.564169
   53          1             0       -1.993314    3.894004    3.847645
   54          1             0       -1.561512    4.616774   -1.576699
   55          1             0       -0.222054    5.553133   -0.933824
   56          1             0       -0.472650    5.468873   -2.671100
 ---------------------------------------------------------------------

 The electronic state is 1-A.
 Alpha  occ. eigenvalues -- -104.83227 -91.99752 -20.59853 -20.54064 -15.65328
 Alpha  occ. eigenvalues --  -15.57761 -15.57686 -15.57591 -11.37284 -11.34021
 Alpha  occ. eigenvalues --  -11.31516 -11.31449 -11.31248 -11.30997 -11.30437
 Alpha  occ. eigenvalues --  -11.29018 -11.28913 -11.27332 -11.27013 -11.26101
 Alpha  occ. eigenvalues --  -11.25898 -11.25637 -11.25570 -11.25427 -11.25264
 Alpha  occ. eigenvalues --  -11.24714 -11.24416 -11.23383 -11.22165 -11.21540
 Alpha  occ. eigenvalues --  -11.21350 -10.56568  -9.00809  -8.03508  -8.03173
 Alpha  occ. eigenvalues --   -8.03171  -6.69070  -6.68964  -6.68787  -1.46219
 Alpha  occ. eigenvalues --   -1.42288  -1.36138  -1.28683  -1.25656  -1.20170
 Alpha  occ. eigenvalues --   -1.19520  -1.14500  -1.12750  -1.10283  -1.07705
 Alpha  occ. eigenvalues --   -1.05856  -1.04818  -1.03988  -1.01373  -0.99334
 Alpha  occ. eigenvalues --   -0.97527  -0.95080  -0.94857  -0.94099  -0.93336
 Alpha  occ. eigenvalues --   -0.87835  -0.85705  -0.84728  -0.83831  -0.81496
 Alpha  occ. eigenvalues --   -0.78518  -0.76675  -0.74200  -0.72228  -0.71371
 Alpha  occ. eigenvalues --   -0.70840  -0.68884  -0.66911  -0.66671  -0.66434
 Alpha  occ. eigenvalues --   -0.66069  -0.65234  -0.64729  -0.63557  -0.62592
 Alpha  occ. eigenvalues --   -0.61925  -0.61133  -0.60999  -0.60025  -0.59662
 Alpha  occ. eigenvalues --   -0.59110  -0.58871  -0.58725  -0.58180  -0.57639
 Alpha  occ. eigenvalues --   -0.57014  -0.56482  -0.55666  -0.55295  -0.54968
 Alpha  occ. eigenvalues --   -0.54293  -0.54021  -0.53117  -0.52822  -0.52527
 Alpha  occ. eigenvalues --   -0.52248  -0.51516  -0.51143  -0.49436  -0.49181
 Alpha  occ. eigenvalues --   -0.49042  -0.47814  -0.47593  -0.45895  -0.44386
 Alpha  occ. eigenvalues --   -0.44296  -0.44211  -0.42881  -0.42466  -0.41807
 Alpha  occ. eigenvalues --   -0.36754  -0.35984  -0.35690  -0.33393  -0.32994
 Alpha virt. eigenvalues --    0.07733   0.09720   0.12280   0.14421   0.16648
 Alpha virt. eigenvalues --    0.17304   0.19075   0.19896   0.20767   0.22167
 Alpha virt. eigenvalues --    0.22572   0.23134   0.24643   0.25033   0.25363

 Mulliken atomic charges:
              1
     1  C   -0.545417
     2  C   -0.504720
     3  C   -0.506375
     4  C   -0.504001
     5  C   -0.504284
     6  C   -0.470628
     7  O   -0.581066
     8  Cl   0.004362
     9  C   -0.188028
    10  C   -0.187325
    11  C   -0.206549
    12  C   -0.181151
    13  C   -0.392635
    14  N   -0.508478
    15  N   -0.370295
    16  N   -0.394539
    17  O   -0.672619
    18  S    0.328504
    19  C    0.818313
    20  C    0.337723
    21  C   -0.129280
    22  C    0.550568
    23  C   -0.023635
    24  C   -0.267617
    25  C    0.087147
    26  C    0.594232
    27  C   -0.087280
    28  C    0.086675
    29  C   -0.072020
    30  N   -0.810076
    31  C    0.306914
    32  H    0.225485
    33  H    0.216196
    34  H    0.240418
    35  H    0.253930
    36  H    0.226557
    37  H    0.237316
    38  H    0.232766
    39  H    0.175188
    40  H    0.166870
    41  H    0.163380
    42  H    0.215399
    43  H    0.168241
    44  H    0.160809
    45  H    0.162280
    46  H    0.215223
    47  H    0.161347
    48  H    0.182398
    49  H    0.196475
    50  H    0.187999
    51  H    0.195769
    52  H    0.196834
    53  H    0.191839
    54  H    0.193563
    55  H    0.198559
    56  H    0.228739
 Sum of Mulliken charges=   0.00000

 Dipole moment (field-independent basis, Debye):
    X=    -2.4678    Y=     2.0350    Z=     8.4170  Tot=     9.0043
 Quadrupole moment (field-independent basis, Debye-Ang):
   XX=  -201.6943   YY=  -194.9413   ZZ=  -207.6928
   XY=   -16.4121   XZ=    10.6841   YZ=     5.2155

 Normal termination of Gaussian 03 at Wed Jun  8 19:18:46 2016.
