 Gaussian 03, Revision D.02,
 Gaussian 03:  AM64L-G03RevD.02  1-Mar-2006

 ------------------------------------------------------------
 #HF/6-31G* SCF=tight Test Pop=MK iop(6/33=2) iop(6/42=6) opt
 ------------------------------------------------------------

 ---------------------
 remark line goes here
 ---------------------
 Symbolic Z-matrix:
 Charge =  0 Multiplicity = 1

 SCF Done:  E(RHF) =  -1328.53431541     A.U. after   16 cycles
 SCF Done:  E(RHF) =  -1328.56971493     A.U. after   15 cycles
 SCF Done:  E(RHF) =  -1328.58314545     A.U. after   15 cycles
 SCF Done:  E(RHF) =  -1328.58600509     A.U. after   16 cycles
 SCF Done:  E(RHF) =  -1328.58658012     A.U. after   13 cycles
 SCF Done:  E(RHF) =  -1328.58676674     A.U. after   12 cycles
 SCF Done:  E(RHF) =  -1328.58678330     A.U. after   11 cycles
 SCF Done:  E(RHF) =  -1328.58679441     A.U. after   11 cycles
 SCF Done:  E(RHF) =  -1328.58679910     A.U. after   10 cycles
 SCF Done:  E(RHF) =  -1328.58679978     A.U. after    9 cycles
 SCF Done:  E(RHF) =  -1328.58679993     A.U. after    9 cycles
 Optimization completed.
    -- Stationary point found.

                         Standard orientation:
 ---------------------------------------------------------------------
 Center     Atomic     Atomic              Coordinates (Angstroms)
 Number     Number      Type              X           Y           Z
 ---------------------------------------------------------------------
    1          6             0       -0.007676    0.429811   -0.362537
    2          6             0        0.769442    1.581076   -0.481273
    3          6             0        0.221460    2.828023   -0.274858
    4         17             0        1.217908    4.244491   -0.436202
    5          6             0       -1.115043    2.964179    0.054913
    6          6             0       -1.899468    1.834760    0.160656
    7          6             0       -1.358907    0.569925   -0.037320
    8          7             0       -2.192078   -0.566415    0.043453
    9          6             0       -3.206981   -0.894263    0.911078
   10          6             0       -3.603365   -0.127048    2.130626
   11          7             0       -3.745654   -1.995693    0.541960
   12          7             0       -3.106842   -2.438258   -0.582369
   13          6             0       -2.193792   -1.592676   -0.861838
   14          6             0       -1.161405   -1.659411   -1.936552
   15          7             0        0.152345   -1.814513   -1.337732
   16          6             0        0.645485   -0.902211   -0.626924
   17          6             0        1.998139   -1.145169   -0.029113
   18          6             0        2.346028   -0.635610    1.217149
   19          6             0        3.584408   -0.916170    1.772511
   20          6             0        4.492741   -1.698475    1.081269
   21          6             0        4.155153   -2.208656   -0.163784
   22          6             0        2.915170   -1.939974   -0.712395
   23          1             0        2.644467   -2.344062   -1.668670
   24          1             0        4.857275   -2.816909   -0.705077
   25          1             0        5.456528   -1.910923    1.508148
   26          1             0        3.835080   -0.524283    2.741758
   27          1             0        1.649393   -0.029832    1.767041
   28          1             0       -1.367108   -2.520566   -2.552471
   29          1             0       -1.208919   -0.770024   -2.561580
   30          1             0       -2.736580    0.225676    2.677608
   31          1             0       -4.223745    0.728911    1.888766
   32          1             0       -4.176299   -0.788257    2.764780
   33          1             0       -2.944950    1.937468    0.374163
   34          1             0       -1.540461    3.937560    0.206713
   35          1             0        1.808143    1.494373   -0.732585
 ---------------------------------------------------------------------

 The electronic state is 1-A.
 Alpha  occ. eigenvalues -- -104.84547 -15.64418 -15.57475 -15.57209 -15.57127
 Alpha  occ. eigenvalues --  -11.32665 -11.32631 -11.31118 -11.31044 -11.30420
 Alpha  occ. eigenvalues --  -11.28631 -11.27985 -11.27831 -11.27640 -11.27621
 Alpha  occ. eigenvalues --  -11.25183 -11.24799 -11.24614 -11.24322 -11.24055
 Alpha  occ. eigenvalues --  -11.24025 -11.23841 -10.57879  -8.04819  -8.04480
 Alpha  occ. eigenvalues --   -8.04476  -1.41772  -1.28090  -1.25108  -1.21226
 Alpha  occ. eigenvalues --   -1.16579  -1.13985  -1.13062  -1.07985  -1.04281
 Alpha  occ. eigenvalues --   -1.02760  -1.02567  -1.00012  -0.97128  -0.90897
 Alpha  occ. eigenvalues --   -0.88479  -0.84717  -0.83779  -0.81836  -0.80425
 Alpha  occ. eigenvalues --   -0.77078  -0.73183  -0.71531  -0.69842  -0.68595
 Alpha  occ. eigenvalues --   -0.67119  -0.65890  -0.64705  -0.64386  -0.63108
 Alpha  occ. eigenvalues --   -0.62522  -0.61615  -0.59958  -0.59652  -0.58096
 Alpha  occ. eigenvalues --   -0.57893  -0.57370  -0.56835  -0.55402  -0.54664
 Alpha  occ. eigenvalues --   -0.52112  -0.50834  -0.50164  -0.49966  -0.47804
 Alpha  occ. eigenvalues --   -0.47349  -0.44907  -0.43694  -0.42273  -0.41764
 Alpha  occ. eigenvalues --   -0.37835  -0.35471  -0.34610  -0.34211  -0.33230
 Alpha virt. eigenvalues --    0.07220   0.09480   0.11060   0.13972   0.17596
 Alpha virt. eigenvalues --    0.18127   0.21312   0.22247   0.22907   0.23716
 Alpha virt. eigenvalues --    0.26552   0.27588   0.28327   0.28722   0.29504

 Mulliken atomic charges:
              1
     1  C   -0.081971
     2  C   -0.179339
     3  C   -0.143756
     4  Cl   0.020848
     5  C   -0.178218
     6  C   -0.202419
     7  C    0.329070
     8  N   -0.823143
     9  C    0.540978
    10  C   -0.540963
    11  N   -0.374152
    12  N   -0.380166
    13  C    0.540910
    14  C   -0.208785
    15  N   -0.491333
    16  C    0.337843
    17  C   -0.036255
    18  C   -0.207203
    19  C   -0.204149
    20  C   -0.190840
    21  C   -0.205824
    22  C   -0.182296
    23  H    0.236024
    24  H    0.208958
    25  H    0.208460
    26  H    0.207383
    27  H    0.212506
    28  H    0.238180
    29  H    0.194406
    30  H    0.189702
    31  H    0.186959
    32  H    0.228481
    33  H    0.241162
    34  H    0.246100
    35  H    0.262842
 Sum of Mulliken charges=   0.00000

 Dipole moment (field-independent basis, Debye):
    X=     2.4563    Y=     4.8316    Z=     1.1197  Tot=     5.5346
 Quadrupole moment (field-independent basis, Debye-Ang):
   XX=  -136.0823   YY=  -150.6849   ZZ=  -126.4504
   XY=   -25.4300   XZ=    -1.5492   YZ=     3.2326

 Normal termination of Gaussian 03 at Wed Jun  8 11:17:32 2016.
