 Gaussian 03, Revision D.02,
 Gaussian 03:  AM64L-G03RevD.02  1-Mar-2006

 ------------------------------------------------------------
 #HF/6-31G* SCF=tight Test Pop=MK iop(6/33=2) iop(6/42=6) opt
 ------------------------------------------------------------

 ---------------------
 remark line goes here
 ---------------------
 Symbolic Z-matrix:
 Charge =  0 Multiplicity = 1

 SCF Done:  E(RHF) =  -1259.49906519     A.U. after   16 cycles
 SCF Done:  E(RHF) =  -1259.51970073     A.U. after   13 cycles
 SCF Done:  E(RHF) =  -1259.52156759     A.U. after   14 cycles
 SCF Done:  E(RHF) =  -1259.52104448     A.U. after   14 cycles
 SCF Done:  E(RHF) =  -1259.52184367     A.U. after   12 cycles
 SCF Done:  E(RHF) =  -1259.52228693     A.U. after   12 cycles
 SCF Done:  E(RHF) =  -1259.52233155     A.U. after   12 cycles
 SCF Done:  E(RHF) =  -1259.52234909     A.U. after   12 cycles
 SCF Done:  E(RHF) =  -1259.52235896     A.U. after   11 cycles
 SCF Done:  E(RHF) =  -1259.52238587     A.U. after   12 cycles
 SCF Done:  E(RHF) =  -1259.52246118     A.U. after   12 cycles
 SCF Done:  E(RHF) =  -1259.52258109     A.U. after   14 cycles
 SCF Done:  E(RHF) =  -1259.52265309     A.U. after   13 cycles
 SCF Done:  E(RHF) =  -1259.52267281     A.U. after   13 cycles
 SCF Done:  E(RHF) =  -1259.52272208     A.U. after   13 cycles
 SCF Done:  E(RHF) =  -1259.52273290     A.U. after   11 cycles
 SCF Done:  E(RHF) =  -1259.52273436     A.U. after   15 cycles
 SCF Done:  E(RHF) =  -1259.52273525     A.U. after    8 cycles
 SCF Done:  E(RHF) =  -1259.52273548     A.U. after    8 cycles
 SCF Done:  E(RHF) =  -1259.52273551     A.U. after    7 cycles
 Optimization completed.
    -- Stationary point found.

                         Standard orientation:
 ---------------------------------------------------------------------
 Center     Atomic     Atomic              Coordinates (Angstroms)
 Number     Number      Type              X           Y           Z
 ---------------------------------------------------------------------
    1          6             0        4.536538   -2.129408    3.083429
    2          6             0        3.485685   -2.183253    1.977040
    3          6             0        4.045346   -1.688516    0.649750
    4          8             0        5.230661   -1.692121    0.449147
    5          7             0        3.177619   -1.211208   -0.298194
    6          6             0        3.763490   -0.524583   -1.467941
    7          6             0        4.061482   -1.505509   -2.597969
    8          6             0        2.860306    0.635834   -1.928653
    9          6             0        1.951468    1.138558   -0.799662
   10          7             0        1.255681    2.325335   -1.225918
   11          6             0        0.616428    3.214989   -0.368441
   12          6             0       -0.173926    4.226727   -0.923129
   13          6             0       -0.801327    5.155415   -0.118613
   14          6             0       -0.660463    5.111469    1.261439
   15          6             0        0.118223    4.111863    1.813488
   16          6             0        0.748383    3.166444    1.017871
   17          6             0        1.083098   -0.047340   -0.404904
   18          6             0       -0.297657   -0.030181   -0.353611
   19          6             0       -1.031281   -1.186342   -0.085235
   20          6             0       -0.336008   -2.376414    0.090776
   21          6             0        1.046362   -2.413508    0.008305
   22          6             0        1.762182   -1.248534   -0.203793
   23          6             0       -2.517736   -1.140080   -0.005594
   24          6             0       -3.305350   -2.119151   -0.589874
   25          6             0       -4.692574   -2.084890   -0.518533
   26          6             0       -5.319020   -1.046999    0.151129
   27          8             0       -6.653911   -0.912097    0.282668
   28          6             0       -7.506506   -1.870999   -0.274174
   29          6             0       -4.544585   -0.051958    0.743022
   30          6             0       -3.171691   -0.101255    0.663823
   31          1             0        4.695774   -0.111005   -1.118376
   32          1             0        2.586379    1.408378    0.036940
   33          1             0        4.114873   -2.506176    4.009725
   34          1             0        5.401426   -2.725593    2.827338
   35          1             0        4.874346   -1.113462    3.254143
   36          1             0        2.608968   -1.610654    2.252903
   37          1             0        3.151784   -3.207881    1.844896
   38          1             0        4.489756   -0.983998   -3.449506
   39          1             0        4.768509   -2.256015   -2.267943
   40          1             0        3.152745   -2.000294   -2.928000
   41          1             0        3.481413    1.447099   -2.291252
   42          1             0        2.230129    0.317600   -2.755768
   43          1             0        0.838467    2.257481   -2.128131
   44          1             0       -0.282438    4.283671   -1.992854
   45          1             0       -1.402609    5.922406   -0.574299
   46          1             0       -1.147882    5.837213    1.886359
   47          1             0        0.238513    4.053187    2.881081
   48          1             0        1.328998    2.395017    1.485908
   49          1             0       -0.819207    0.890102   -0.533541
   50          1             0       -0.872730   -3.284121    0.298555
   51          1             0        1.562455   -3.349608    0.113024
   52          1             0       -2.840211   -2.922316   -1.132966
   53          1             0       -5.257975   -2.862786   -0.993739
   54          1             0       -7.395327   -1.922626   -1.352238
   55          1             0       -7.331089   -2.853157    0.152260
   56          1             0       -8.511400   -1.555838   -0.036574
   57          1             0       -5.041762    0.744441    1.264761
   58          1             0       -2.594217    0.669528    1.141873
 ---------------------------------------------------------------------

 The electronic state is 1-A.
 Alpha  occ. eigenvalues --  -20.59052 -20.52127 -15.58996 -15.56976 -11.34471
 Alpha  occ. eigenvalues --  -11.29932 -11.28424 -11.27765 -11.27709 -11.27630
 Alpha  occ. eigenvalues --  -11.26663 -11.24633 -11.24154 -11.23978 -11.23884
 Alpha  occ. eigenvalues --  -11.23655 -11.23610 -11.23542 -11.23406 -11.23160
 Alpha  occ. eigenvalues --  -11.23148 -11.23139 -11.23102 -11.22999 -11.22484
 Alpha  occ. eigenvalues --  -11.22060 -11.21939 -11.21495 -11.21029 -11.20996
 Alpha  occ. eigenvalues --   -1.41989  -1.39178  -1.26957  -1.24846  -1.17065
 Alpha  occ. eigenvalues --   -1.14547  -1.13716  -1.08311  -1.06066  -1.04517
 Alpha  occ. eigenvalues --   -1.02846  -1.02394  -1.01212  -1.00455  -0.99171
 Alpha  occ. eigenvalues --   -0.96079  -0.94209  -0.89669  -0.88082  -0.85407
 Alpha  occ. eigenvalues --   -0.84698  -0.82946  -0.82751  -0.80468  -0.80108
 Alpha  occ. eigenvalues --   -0.78220  -0.75458  -0.72681  -0.71780  -0.69289
 Alpha  occ. eigenvalues --   -0.68506  -0.68248  -0.67548  -0.66548  -0.66136
 Alpha  occ. eigenvalues --   -0.65883  -0.63663  -0.63231  -0.62700  -0.61824
 Alpha  occ. eigenvalues --   -0.61163  -0.60904  -0.60336  -0.59469  -0.58809
 Alpha  occ. eigenvalues --   -0.58266  -0.58142  -0.57960  -0.57797  -0.56605
 Alpha  occ. eigenvalues --   -0.54885  -0.53732  -0.53475  -0.52937  -0.52771
 Alpha  occ. eigenvalues --   -0.51971  -0.51759  -0.51350  -0.50887  -0.50313
 Alpha  occ. eigenvalues --   -0.49964  -0.49463  -0.48674  -0.48556  -0.48032
 Alpha  occ. eigenvalues --   -0.47690  -0.47118  -0.46616  -0.42292  -0.41664
 Alpha  occ. eigenvalues --   -0.39627  -0.34228  -0.34155  -0.33685  -0.33166
 Alpha  occ. eigenvalues --   -0.28564  -0.28325
 Alpha virt. eigenvalues --    0.11120   0.13521   0.13893   0.14779   0.16593
 Alpha virt. eigenvalues --    0.18031   0.20812   0.23236   0.23389   0.23857
 Alpha virt. eigenvalues --    0.24119   0.24692   0.25853   0.26127   0.26911

 Mulliken atomic charges:
              1
     1  C   -0.471573
     2  C   -0.425285
     3  C    0.775817
     4  O   -0.612464
     5  N   -0.818102
     6  C    0.066327
     7  C   -0.479652
     8  C   -0.358830
     9  C    0.070986
    10  N   -0.845440
    11  C    0.377285
    12  C   -0.270862
    13  C   -0.177437
    14  C   -0.234317
    15  C   -0.179231
    16  C   -0.272233
    17  C   -0.010323
    18  C   -0.256030
    19  C    0.025319
    20  C   -0.228998
    21  C   -0.204941
    22  C    0.298060
    23  C   -0.014218
    24  C   -0.201373
    25  C   -0.288627
    26  C    0.435775
    27  O   -0.651535
    28  C   -0.186206
    29  C   -0.251602
    30  C   -0.199979
    31  H    0.220891
    32  H    0.198180
    33  H    0.158917
    34  H    0.192262
    35  H    0.168657
    36  H    0.195045
    37  H    0.190611
    38  H    0.158707
    39  H    0.195330
    40  H    0.158743
    41  H    0.196763
    42  H    0.166118
    43  H    0.367983
    44  H    0.192530
    45  H    0.200200
    46  H    0.195598
    47  H    0.199632
    48  H    0.204338
    49  H    0.228967
    50  H    0.211080
    51  H    0.214859
    52  H    0.208638
    53  H    0.208473
    54  H    0.161373
    55  H    0.161443
    56  H    0.192847
    57  H    0.219529
    58  H    0.221972
 Sum of Mulliken charges=   0.00000

 Dipole moment (field-independent basis, Debye):
    X=    -4.1234    Y=    -1.3890    Z=    -1.4217  Tot=     4.5774
 Quadrupole moment (field-independent basis, Debye-Ang):
   XX=  -189.0881   YY=  -170.1448   ZZ=  -170.2525
   XY=    11.8629   XZ=     3.4179   YZ=     0.5571

 Normal termination of Gaussian 03 at Wed Sep 23 22:59:05 2015.
