 Gaussian 03, Revision D.02,
 Gaussian 03:  AM64L-G03RevD.02  1-Mar-2006

 ------------------------------------------------------------
 #HF/6-31G* SCF=tight Test Pop=MK iop(6/33=2) iop(6/42=6) opt
 ------------------------------------------------------------

 ---------------------
 remark line goes here
 ---------------------
 Symbolic Z-matrix:
 Charge =  1 Multiplicity = 1

 SCF Done:  E(RHF) =  -1473.10745833     A.U. after   16 cycles
 SCF Done:  E(RHF) =  -1473.12943807     A.U. after   13 cycles
 SCF Done:  E(RHF) =  -1473.13290804     A.U. after   14 cycles
 SCF Done:  E(RHF) =  -1473.13247728     A.U. after   14 cycles
 SCF Done:  E(RHF) =  -1473.13330337     A.U. after   12 cycles
 SCF Done:  E(RHF) =  -1473.13381284     A.U. after   14 cycles
 SCF Done:  E(RHF) =  -1473.13424832     A.U. after   13 cycles
 SCF Done:  E(RHF) =  -1473.13452307     A.U. after   14 cycles
 SCF Done:  E(RHF) =  -1473.13474176     A.U. after   14 cycles
 SCF Done:  E(RHF) =  -1473.13483787     A.U. after   12 cycles
 SCF Done:  E(RHF) =  -1473.13486079     A.U. after   12 cycles
 SCF Done:  E(RHF) =  -1473.13487429     A.U. after   14 cycles
 SCF Done:  E(RHF) =  -1473.13488457     A.U. after   11 cycles
 SCF Done:  E(RHF) =  -1473.13488963     A.U. after   16 cycles
 SCF Done:  E(RHF) =  -1473.13489102     A.U. after   11 cycles
 SCF Done:  E(RHF) =  -1473.13489154     A.U. after    9 cycles
 SCF Done:  E(RHF) =  -1473.13489164     A.U. after    8 cycles
 SCF Done:  E(RHF) =  -1473.13489167     A.U. after    6 cycles
 Optimization completed.
    -- Stationary point found.

                         Standard orientation:
 ---------------------------------------------------------------------
 Center     Atomic     Atomic              Coordinates (Angstroms)
 Number     Number      Type              X           Y           Z
 ---------------------------------------------------------------------
    1          6             0        7.376009   -1.620316   -2.855548
    2          6             0        6.609511   -0.572356   -2.048918
    3          6             0        5.645437   -1.204878   -1.041494
    4          6             0        4.920593   -0.186473   -0.156421
    5          6             0        4.021508    0.776377   -0.959033
    6          6             0        2.780876    1.200342   -0.163735
    7          7             0        2.005086    2.172142   -0.906314
    8          6             0        1.309812    3.204721   -0.273636
    9          6             0        0.867168    3.109410    1.043355
   10          6             0        0.156132    4.152901    1.618411
   11          6             0       -0.136862    5.298758    0.903460
   12          6             0        0.296803    5.391452   -0.411989
   13          6             0        1.008744    4.362885   -0.994905
   14          6             0        2.021826   -0.080396    0.129400
   15          6             0        0.688196   -0.281875   -0.166002
   16          6             0        0.074812   -1.509564    0.076653
   17          6             0        0.842975   -2.549151    0.587272
   18          6             0        2.188692   -2.367706    0.853833
   19          6             0        2.776412   -1.127726    0.656297
   20          7             0        4.142108   -0.869155    0.902447
   21          6             0        4.800843   -1.158218    2.074899
   22          6             0        4.008379   -1.647594    3.270944
   23          8             0        5.985274   -0.998205    2.166980
   24          6             0       -1.369592   -1.699812   -0.223550
   25          6             0       -2.200835   -2.399255    0.650095
   26          6             0       -3.544436   -2.569080    0.372849
   27          6             0       -4.106369   -2.032242   -0.780317
   28          6             0       -5.564504   -2.233252   -1.091867
   29          6             0       -6.519823   -1.034320    0.923824
   30          6             0       -7.595754   -0.050811    1.370150
   31          6             0       -7.395515    1.325656    0.734601
   32          6             0       -7.312681    1.202655   -0.787439
   33          6             0       -6.239539    0.205644   -1.209728
   34          6             0       -3.275981   -1.355347   -1.667964
   35          6             0       -1.932602   -1.188114   -1.392658
   36          1             0        5.659986    0.396811    0.369396
   37          1             0        3.114707    1.632557    0.776954
   38          1             0        8.054794   -1.151365   -3.560271
   39          1             0        7.963751   -2.260467   -2.204978
   40          1             0        6.698131   -2.254182   -3.420301
   41          1             0        6.069429    0.076896   -2.733933
   42          1             0        7.317098    0.059690   -1.517307
   43          1             0        6.202127   -1.870691   -0.392015
   44          1             0        4.906977   -1.809649   -1.565621
   45          1             0        4.603651    1.649968   -1.233124
   46          1             0        3.686164    0.308123   -1.880312
   47          1             0        2.449813    2.468191   -1.746970
   48          1             0        1.068750    2.228755    1.623471
   49          1             0       -0.165784    4.061058    2.640935
   50          1             0       -0.681980    6.105484    1.358161
   51          1             0        0.086908    6.276073   -0.986790
   52          1             0        1.343307    4.454253   -2.014352
   53          1             0        0.122753    0.536298   -0.568332
   54          1             0        0.407508   -3.520451    0.737895
   55          1             0        2.780946   -3.194790    1.196350
   56          1             0        3.950530   -2.730220    3.263952
   57          1             0        3.003817   -1.250769    3.315080
   58          1             0        4.561308   -1.351932    4.150811
   59          1             0       -1.796700   -2.804197    1.558994
   60          1             0       -4.152085   -3.129657    1.062324
   61          1             0       -5.737390   -2.272943   -2.158428
   62          1             0       -5.938298   -3.148497   -0.654220
   63          1             0       -6.702723   -2.028939    1.306268
   64          1             0       -5.535161   -0.719084    1.234486
   65          1             0       -7.559291    0.012128    2.451457
   66          1             0       -8.577648   -0.443421    1.115322
   67          1             0       -8.210384    1.983652    1.010014
   68          1             0       -6.482756    1.775621    1.115543
   69          1             0       -8.274747    0.897481   -1.193043
   70          1             0       -7.074673    2.157554   -1.241291
   71          1             0       -6.231332    0.055304   -2.280365
   72          1             0       -5.255548    0.519919   -0.896120
   73          1             0       -3.669322   -0.972643   -2.594022
   74          1             0       -1.309431   -0.679540   -2.103927
   75          7             0       -6.485717   -1.136124   -0.576194
   76          1             0       -7.411144   -1.418665   -0.862143
 ---------------------------------------------------------------------

 The electronic state is 1-A.
 Alpha  occ. eigenvalues --  -20.57999 -15.84244 -15.65291 -15.63295 -11.43921
 Alpha  occ. eigenvalues --  -11.43202 -11.43175 -11.40656 -11.37375 -11.37353
 Alpha  occ. eigenvalues --  -11.36860 -11.36056 -11.35782 -11.35724 -11.35620
 Alpha  occ. eigenvalues --  -11.35044 -11.34237 -11.34159 -11.34047 -11.33790
 Alpha  occ. eigenvalues --  -11.32553 -11.32499 -11.31616 -11.31182 -11.31055
 Alpha  occ. eigenvalues --  -11.31038 -11.29552 -11.29236 -11.29190 -11.28450
 Alpha  occ. eigenvalues --  -11.28275 -11.28187 -11.27666 -11.26786 -11.26727
 Alpha  occ. eigenvalues --  -11.25488  -1.48300  -1.45197  -1.33416  -1.31115
 Alpha  occ. eigenvalues --   -1.28606  -1.24498  -1.23103  -1.20134  -1.19933
 Alpha  occ. eigenvalues --   -1.17917  -1.14982  -1.13603  -1.12805  -1.11019
 Alpha  occ. eigenvalues --   -1.08425  -1.07736  -1.07390  -1.06593  -1.04478
 Alpha  occ. eigenvalues --   -1.03794  -1.02869  -1.00216  -0.96311  -0.95722
 Alpha  occ. eigenvalues --   -0.94841  -0.94062  -0.91538  -0.90371  -0.89152
 Alpha  occ. eigenvalues --   -0.87566  -0.86071  -0.85559  -0.84496  -0.84167
 Alpha  occ. eigenvalues --   -0.82467  -0.82308  -0.80656  -0.78091  -0.77719
 Alpha  occ. eigenvalues --   -0.77639  -0.75942  -0.75054  -0.74215  -0.73763
 Alpha  occ. eigenvalues --   -0.73502  -0.72749  -0.72368  -0.71830  -0.71444
 Alpha  occ. eigenvalues --   -0.70894  -0.70304  -0.69607  -0.69188  -0.68587
 Alpha  occ. eigenvalues --   -0.68399  -0.68209  -0.66987  -0.66449  -0.66384
 Alpha  occ. eigenvalues --   -0.65730  -0.65113  -0.64396  -0.64290  -0.63336
 Alpha  occ. eigenvalues --   -0.62826  -0.62436  -0.61893  -0.61438  -0.61164
 Alpha  occ. eigenvalues --   -0.61088  -0.61057  -0.60565  -0.59792  -0.59234
 Alpha  occ. eigenvalues --   -0.58597  -0.57833  -0.57067  -0.56678  -0.56078
 Alpha  occ. eigenvalues --   -0.55231  -0.54592  -0.53959  -0.52685  -0.52208
 Alpha  occ. eigenvalues --   -0.51568  -0.49054  -0.48407  -0.46726  -0.45291
 Alpha  occ. eigenvalues --   -0.44323  -0.41206  -0.39469  -0.37496  -0.35112
 Alpha virt. eigenvalues --   -0.00933   0.02329   0.04247   0.06228   0.07597
 Alpha virt. eigenvalues --    0.08667   0.09511   0.10427   0.10565   0.10704
 Alpha virt. eigenvalues --    0.12132   0.14286   0.14540   0.14740   0.15115

 Mulliken atomic charges:
              1
     1  C   -0.480094
     2  C   -0.325192
     3  C   -0.305941
     4  C    0.069519
     5  C   -0.389150
     6  C    0.081043
     7  N   -0.840078
     8  C    0.354367
     9  C   -0.272462
    10  C   -0.181957
    11  C   -0.233172
    12  C   -0.180695
    13  C   -0.274900
    14  C   -0.024909
    15  C   -0.232890
    16  C    0.002356
    17  C   -0.220705
    18  C   -0.207331
    19  C    0.320960
    20  N   -0.819458
    21  C    0.749257
    22  C   -0.586031
    23  O   -0.589988
    24  C    0.029370
    25  C   -0.213657
    26  C   -0.212804
    27  C   -0.005883
    28  C   -0.215819
    29  C   -0.176704
    30  C   -0.355686
    31  C   -0.336051
    32  C   -0.355602
    33  C   -0.177426
    34  C   -0.213941
    35  C   -0.209538
    36  H    0.227351
    37  H    0.201953
    38  H    0.170237
    39  H    0.168733
    40  H    0.155664
    41  H    0.153019
    42  H    0.170461
    43  H    0.197657
    44  H    0.151650
    45  H    0.195122
    46  H    0.181848
    47  H    0.376799
    48  H    0.205161
    49  H    0.201740
    50  H    0.202345
    51  H    0.208351
    52  H    0.197221
    53  H    0.241291
    54  H    0.217415
    55  H    0.229739
    56  H    0.197068
    57  H    0.187233
    58  H    0.224354
    59  H    0.237171
    60  H    0.214673
    61  H    0.244595
    62  H    0.244142
    63  H    0.231015
    64  H    0.247656
    65  H    0.230637
    66  H    0.190181
    67  H    0.221843
    68  H    0.193794
    69  H    0.189995
    70  H    0.231364
    71  H    0.231324
    72  H    0.248636
    73  H    0.215420
    74  H    0.243450
    75  N   -0.679964
    76  H    0.432848
 Sum of Mulliken charges=   1.00000

 Dipole moment (field-independent basis, Debye):
    X=   -27.9406    Y=    -3.7209    Z=    -2.8418  Tot=    28.3302
 Quadrupole moment (field-independent basis, Debye-Ang):
   XX=   -36.7510   YY=  -191.7647   ZZ=  -197.7297
   XY=    23.5010   XZ=    -4.0698   YZ=    -7.2781

 Normal termination of Gaussian 03 at Thu Sep 24 01:22:33 2015.
