 Gaussian 03, Revision D.02,
 Gaussian 03:  AM64L-G03RevD.02  1-Mar-2006

 ------------------------------------------------------------
 #HF/6-31G* SCF=tight Test Pop=MK iop(6/33=2) iop(6/42=6) opt
 ------------------------------------------------------------

 ---------------------
 remark line goes here
 ---------------------
 Symbolic Z-matrix:
 Charge =  0 Multiplicity = 1

 SCF Done:  E(RHF) =  -1298.53150268     A.U. after   16 cycles
 SCF Done:  E(RHF) =  -1298.55215430     A.U. after   13 cycles
 SCF Done:  E(RHF) =  -1298.55432203     A.U. after   14 cycles
 SCF Done:  E(RHF) =  -1298.55393641     A.U. after   13 cycles
 SCF Done:  E(RHF) =  -1298.55473519     A.U. after   13 cycles
 SCF Done:  E(RHF) =  -1298.55517324     A.U. after   12 cycles
 SCF Done:  E(RHF) =  -1298.55527155     A.U. after   12 cycles
 SCF Done:  E(RHF) =  -1298.55543940     A.U. after   13 cycles
 SCF Done:  E(RHF) =  -1298.55559095     A.U. after   15 cycles
 SCF Done:  E(RHF) =  -1298.55573625     A.U. after   13 cycles
 SCF Done:  E(RHF) =  -1298.55591396     A.U. after   17 cycles
 SCF Done:  E(RHF) =  -1298.55601453     A.U. after   15 cycles
 SCF Done:  E(RHF) =  -1298.55605808     A.U. after   14 cycles
 SCF Done:  E(RHF) =  -1298.55608193     A.U. after   11 cycles
 SCF Done:  E(RHF) =  -1298.55609424     A.U. after   15 cycles
 SCF Done:  E(RHF) =  -1298.55609741     A.U. after   14 cycles
 SCF Done:  E(RHF) =  -1298.55609819     A.U. after    9 cycles
 SCF Done:  E(RHF) =  -1298.55609853     A.U. after    8 cycles
 SCF Done:  E(RHF) =  -1298.55609862     A.U. after    7 cycles
 SCF Done:  E(RHF) =  -1298.55609864     A.U. after    6 cycles
 Optimization completed.
    -- Stationary point found.

                         Standard orientation:
 ---------------------------------------------------------------------
 Center     Atomic     Atomic              Coordinates (Angstroms)
 Number     Number      Type              X           Y           Z
 ---------------------------------------------------------------------
    1          6             0       -7.723309   -0.706750   -0.430406
    2          8             0       -6.843468   -1.442903    0.369944
    3          6             0       -5.513750   -1.337651    0.173112
    4          6             0       -4.709981   -2.091382    1.024681
    5          6             0       -3.339777   -2.050240    0.902146
    6          6             0       -2.717379   -1.261478   -0.069386
    7          6             0       -3.534448   -0.518694   -0.906982
    8          6             0       -4.918998   -0.547675   -0.796640
    9          6             0       -1.233897   -1.224519   -0.196867
   10          6             0       -0.481722   -2.392589   -0.129009
   11          6             0        0.896414   -2.361885   -0.255933
   12          6             0        1.551937   -1.152631   -0.415119
   13          7             0        2.958076   -1.042428   -0.569733
   14          6             0        3.444660   -0.263894   -1.727280
   15          6             0        3.670851   -1.155342   -2.944970
   16          6             0        2.490213    0.908296   -2.037336
   17          6             0        1.615200    1.274534   -0.831555
   18          7             0        0.800356    2.434057   -1.128883
   19          6             0        0.499506    3.396873   -0.167098
   20          6             0        0.205023    4.700654   -0.573167
   21          6             0       -0.127533    5.669469    0.352267
   22          6             0       -0.173070    5.371847    1.706580
   23          6             0        0.114922    4.081409    2.111304
   24          6             0        0.445313    3.097225    1.192426
   25          6             0        0.814982    0.024579   -0.512284
   26          6             0       -0.562691   -0.020492   -0.407596
   27          6             0        3.904264   -1.579569    0.263099
   28          8             0        5.068230   -1.564152   -0.043775
   29          6             0        3.502076   -2.128590    1.630055
   30          6             0        3.960074   -3.585188    1.759798
   31          6             0        4.158307   -1.247807    2.703287
   32          1             0        4.394275    0.141722   -1.418303
   33          1             0        2.272534    1.495706    0.006505
   34          1             0       -8.717727   -0.945151   -0.084059
   35          1             0       -7.555924    0.360139   -0.326117
   36          1             0       -7.634840   -0.983564   -1.475779
   37          1             0       -5.182366   -2.692861    1.778919
   38          1             0       -2.738901   -2.624460    1.584368
   39          1             0       -3.094394    0.087195   -1.678470
   40          1             0       -5.507469    0.040701   -1.473448
   41          1             0       -0.975727   -3.340317   -0.014204
   42          1             0        1.457353   -3.278398   -0.242952
   43          1             0        2.747181   -1.642839   -3.242350
   44          1             0        4.411768   -1.912511   -2.723021
   45          1             0        4.026197   -0.565445   -3.785458
   46          1             0        3.082632    1.764416   -2.347295
   47          1             0        1.832230    0.653707   -2.863600
   48          1             0        0.976988    2.824069   -2.027641
   49          1             0        0.238609    4.949630   -1.620445
   50          1             0       -0.347799    6.666215    0.012431
   51          1             0       -0.429475    6.128334    2.425528
   52          1             0        0.079374    3.825904    3.155756
   53          1             0        0.640433    2.099127    1.536369
   54          1             0       -1.116282    0.895950   -0.476094
   55          1             0        2.432267   -2.080379    1.764885
   56          1             0        3.708035   -3.969997    2.742810
   57          1             0        3.484280   -4.224438    1.021906
   58          1             0        5.031808   -3.658429    1.623882
   59          1             0        3.890421   -1.607459    3.691646
   60          1             0        3.827759   -0.216258    2.625042
   61          1             0        5.236511   -1.266341    2.607394
 ---------------------------------------------------------------------

 The electronic state is 1-A.
 Alpha  occ. eigenvalues --  -20.58904 -20.51905 -15.59178 -15.56977 -11.34176
 Alpha  occ. eigenvalues --  -11.29768 -11.28274 -11.27699 -11.27583 -11.27509
 Alpha  occ. eigenvalues --  -11.26879 -11.24358 -11.23887 -11.23789 -11.23651
 Alpha  occ. eigenvalues --  -11.23647 -11.23559 -11.23440 -11.23430 -11.23402
 Alpha  occ. eigenvalues --  -11.23156 -11.23049 -11.23033 -11.22813 -11.22396
 Alpha  occ. eigenvalues --  -11.22171 -11.21884 -11.21556 -11.21425 -11.21382
 Alpha  occ. eigenvalues --  -11.21092  -1.41833  -1.39032  -1.26945  -1.24820
 Alpha  occ. eigenvalues --   -1.16883  -1.14443  -1.13658  -1.08902  -1.06853
 Alpha  occ. eigenvalues --   -1.05866  -1.03080  -1.01993  -1.01209  -1.00453
 Alpha  occ. eigenvalues --   -0.99090  -0.95974  -0.94128  -0.93474  -0.88921
 Alpha  occ. eigenvalues --   -0.87586  -0.85487  -0.83805  -0.82966  -0.82328
 Alpha  occ. eigenvalues --   -0.80188  -0.79730  -0.77657  -0.75025  -0.72495
 Alpha  occ. eigenvalues --   -0.71544  -0.69328  -0.68608  -0.68300  -0.67469
 Alpha  occ. eigenvalues --   -0.66820  -0.65987  -0.65794  -0.63240  -0.62696
 Alpha  occ. eigenvalues --   -0.62626  -0.61452  -0.60948  -0.60548  -0.60113
 Alpha  occ. eigenvalues --   -0.59587  -0.59148  -0.58531  -0.58331  -0.58165
 Alpha  occ. eigenvalues --   -0.57950  -0.57357  -0.55695  -0.54678  -0.54353
 Alpha  occ. eigenvalues --   -0.53769  -0.53000  -0.52819  -0.52138  -0.51882
 Alpha  occ. eigenvalues --   -0.51191  -0.50998  -0.50719  -0.49629  -0.49249
 Alpha  occ. eigenvalues --   -0.48605  -0.48411  -0.48045  -0.47775  -0.47433
 Alpha  occ. eigenvalues --   -0.46720  -0.46325  -0.42537  -0.41142  -0.39482
 Alpha  occ. eigenvalues --   -0.34075  -0.33826  -0.33478  -0.33074  -0.28809
 Alpha  occ. eigenvalues --   -0.28214
 Alpha virt. eigenvalues --    0.11413   0.13710   0.14057   0.14697   0.16570
 Alpha virt. eigenvalues --    0.18235   0.20332   0.22139   0.23012   0.24029
 Alpha virt. eigenvalues --    0.24469   0.24780   0.25779   0.25895   0.26844

 Mulliken atomic charges:
              1
     1  C   -0.186333
     2  O   -0.652185
     3  C    0.435592
     4  C   -0.250838
     5  C   -0.199098
     6  C   -0.009803
     7  C   -0.198427
     8  C   -0.287856
     9  C    0.021120
    10  C   -0.228444
    11  C   -0.210781
    12  C    0.303452
    13  N   -0.822034
    14  C    0.068283
    15  C   -0.481571
    16  C   -0.384104
    17  C    0.081209
    18  N   -0.834599
    19  C    0.358841
    20  C   -0.274158
    21  C   -0.178703
    22  C   -0.231811
    23  C   -0.178786
    24  C   -0.267553
    25  C   -0.021496
    26  C   -0.241823
    27  C    0.788817
    28  O   -0.626652
    29  C   -0.260574
    30  C   -0.483623
    31  C   -0.483248
    32  H    0.220877
    33  H    0.193507
    34  H    0.192220
    35  H    0.162422
    36  H    0.161206
    37  H    0.217159
    38  H    0.209672
    39  H    0.212407
    40  H    0.208941
    41  H    0.212577
    42  H    0.219182
    43  H    0.161681
    44  H    0.198193
    45  H    0.157301
    46  H    0.181770
    47  H    0.180716
    48  H    0.371680
    49  H    0.189424
    50  H    0.199312
    51  H    0.195713
    52  H    0.200578
    53  H    0.210283
    54  H    0.240897
    55  H    0.196317
    56  H    0.165346
    57  H    0.158973
    58  H    0.195740
    59  H    0.165296
    60  H    0.163475
    61  H    0.194319
 Sum of Mulliken charges=   0.00000

 Dipole moment (field-independent basis, Debye):
    X=    -3.0780    Y=     1.2468    Z=    -1.4854  Tot=     3.6380
 Quadrupole moment (field-independent basis, Debye-Ang):
   XX=  -193.9728   YY=  -178.3443   ZZ=  -174.4505
   XY=     0.4383   XZ=     5.9734   YZ=    -8.9764

 Normal termination of Gaussian 03 at Wed Sep 23 22:21:10 2015.
