 Gaussian 03, Revision D.02,
 Gaussian 03:  AM64L-G03RevD.02  1-Mar-2006

 ------------------------------------------------------------
 #HF/6-31G* SCF=tight Test Pop=MK iop(6/33=2) iop(6/42=6) opt
 ------------------------------------------------------------

 ---------------------
 remark line goes here
 ---------------------
 Symbolic Z-matrix:
 Charge = -1 Multiplicity = 1

 SCF Done:  E(RHF) =  -1752.52337811     A.U. after   16 cycles
 SCF Done:  E(RHF) =  -1752.54715593     A.U. after   14 cycles
 SCF Done:  E(RHF) =  -1752.55813167     A.U. after   16 cycles
 SCF Done:  E(RHF) =  -1752.56070326     A.U. after   15 cycles
 SCF Done:  E(RHF) =  -1752.56110693     A.U. after   13 cycles
 SCF Done:  E(RHF) =  -1752.56326103     A.U. after   13 cycles
 SCF Done:  E(RHF) =  -1752.56361388     A.U. after   13 cycles
 SCF Done:  E(RHF) =  -1752.56378503     A.U. after   12 cycles
 SCF Done:  E(RHF) =  -1752.56399268     A.U. after   12 cycles
 SCF Done:  E(RHF) =  -1752.56413607     A.U. after   12 cycles
 SCF Done:  E(RHF) =  -1752.56465285     A.U. after   12 cycles
 SCF Done:  E(RHF) =  -1752.56471706     A.U. after   11 cycles
 SCF Done:  E(RHF) =  -1752.56474695     A.U. after   11 cycles
 SCF Done:  E(RHF) =  -1752.56476121     A.U. after   11 cycles
 SCF Done:  E(RHF) =  -1752.56476949     A.U. after   11 cycles
 SCF Done:  E(RHF) =  -1752.56477310     A.U. after   10 cycles
 SCF Done:  E(RHF) =  -1752.56477446     A.U. after    9 cycles
 SCF Done:  E(RHF) =  -1752.56477476     A.U. after    9 cycles
 SCF Done:  E(RHF) =  -1752.56477484     A.U. after    7 cycles
 SCF Done:  E(RHF) =  -1752.56477487     A.U. after    7 cycles
 Optimization completed.
    -- Stationary point found.

                         Standard orientation:
 ---------------------------------------------------------------------
 Center     Atomic     Atomic              Coordinates (Angstroms)
 Number     Number      Type              X           Y           Z
 ---------------------------------------------------------------------
    1          6             0        4.408493   -2.707949   -1.989105
    2          6             0        4.125187   -1.535674   -1.054018
    3          6             0        3.324488   -0.417174   -1.749511
    4          6             0        2.393778    0.313874   -0.771811
    5          7             0        1.804924    1.456861   -1.425536
    6          6             0        1.278299    2.556693   -0.760972
    7          6             0        0.639095    3.548361   -1.512428
    8          6             0        0.142875    4.688367   -0.918143
    9          6             0        0.282312    4.869195    0.447223
   10         17             0       -0.330125    6.322540    1.202021
   11          6             0        0.898347    3.900424    1.209201
   12          6             0        1.388101    2.748469    0.614314
   13          6             0        1.426750   -0.738262   -0.250059
   14          6             0        0.048379   -0.636669   -0.288627
   15          6             0       -0.775229   -1.697525    0.097250
   16          6             0       -0.160856   -2.878385    0.504315
   17          6             0        1.218314   -2.998249    0.532939
   18          6             0        2.016136   -1.924144    0.182706
   19          7             0        3.438077   -1.979622    0.172776
   20          6             0        4.213844   -2.340080    1.235774
   21          6             0        3.551878   -2.582918    2.578191
   22          8             0        5.409233   -2.447622    1.131093
   23          6             0       -2.258069   -1.582759    0.044486
   24          6             0       -3.052827   -2.099538    1.065875
   25          6             0       -4.432788   -2.007294    1.005422
   26          6             0       -5.065433   -1.402417   -0.073428
   27          6             0       -4.272815   -0.884801   -1.090131
   28          6             0       -2.892304   -0.970256   -1.034622
   29          6             0       -6.610589   -1.312558   -0.143733
   30          8             0       -7.049967   -0.759868   -1.151537
   31          8             0       -7.200508   -1.807591    0.815945
   32          1             0        5.048048   -3.432303   -1.500200
   33          1             0        3.484416   -3.196972   -2.282181
   34          1             0        4.908662   -2.362902   -2.890319
   35          1             0        5.066580   -1.125786   -0.723580
   36          1             0        2.717073   -0.830805   -2.550715
   37          1             0        4.014649    0.287903   -2.199938
   38          1             0        3.005180    0.682918    0.043733
   39          1             0        1.349381    1.246354   -2.286700
   40          1             0        0.539026    3.422375   -2.576351
   41          1             0       -0.347020    5.435787   -1.513412
   42          1             0        0.990165    4.029970    2.271226
   43          1             0        1.835541    2.000604    1.238954
   44          1             0       -0.407297    0.282369   -0.604256
   45          1             0       -0.767972   -3.725504    0.764611
   46          1             0        1.668979   -3.934331    0.808766
   47          1             0        4.303092   -2.403761    3.334471
   48          1             0        2.690442   -1.953406    2.750166
   49          1             0        3.234868   -3.616553    2.658049
   50          1             0       -2.586663   -2.556148    1.923141
   51          1             0       -5.049013   -2.397268    1.792919
   52          1             0       -4.766411   -0.424500   -1.924655
   53          1             0       -2.302877   -0.583633   -1.849423
 ---------------------------------------------------------------------

 The electronic state is 1-A.
 Alpha  occ. eigenvalues -- -104.76367 -20.46653 -20.29981 -20.29977 -15.53559
 Alpha  occ. eigenvalues --  -15.51948 -11.29357 -11.23237 -11.22957 -11.22242
 Alpha  occ. eigenvalues --  -11.21448 -11.20996 -11.19221 -11.19156 -11.17892
 Alpha  occ. eigenvalues --  -11.17816 -11.17756 -11.17702 -11.17392 -11.17354
 Alpha  occ. eigenvalues --  -11.17106 -11.16354 -11.16272 -11.16077 -11.14652
 Alpha  occ. eigenvalues --  -11.13379 -11.11867 -11.11808 -11.09970 -11.09954
 Alpha  occ. eigenvalues --  -11.08712 -10.49689  -7.96629  -7.96308  -7.96297
 Alpha  occ. eigenvalues --   -1.33647  -1.21493  -1.19759  -1.18987  -1.12355
 Alpha  occ. eigenvalues --   -1.09162  -1.08646  -1.05547  -1.03610  -1.02176
 Alpha  occ. eigenvalues --   -0.98349  -0.97341  -0.95749  -0.94579  -0.92641
 Alpha  occ. eigenvalues --   -0.90335  -0.89379  -0.88065  -0.82953  -0.79137
 Alpha  occ. eigenvalues --   -0.78970  -0.78196  -0.75499  -0.73730  -0.70577
 Alpha  occ. eigenvalues --   -0.70041  -0.69000  -0.66839  -0.62934  -0.62316
 Alpha  occ. eigenvalues --   -0.62042  -0.60869  -0.59692  -0.59204  -0.58242
 Alpha  occ. eigenvalues --   -0.56456  -0.56320  -0.55351  -0.54418  -0.54230
 Alpha  occ. eigenvalues --   -0.54099  -0.52903  -0.52783  -0.51704  -0.50550
 Alpha  occ. eigenvalues --   -0.50268  -0.50043  -0.49485  -0.48607  -0.48041
 Alpha  occ. eigenvalues --   -0.47002  -0.46626  -0.46597  -0.46217  -0.45288
 Alpha  occ. eigenvalues --   -0.44478  -0.44407  -0.43435  -0.42951  -0.42478
 Alpha  occ. eigenvalues --   -0.41293  -0.40603  -0.39829  -0.39147  -0.38540
 Alpha  occ. eigenvalues --   -0.36867  -0.35988  -0.35944  -0.35659  -0.33537
 Alpha  occ. eigenvalues --   -0.29337  -0.27254  -0.25910  -0.23343  -0.21742
 Alpha  occ. eigenvalues --   -0.21596  -0.20963  -0.19685  -0.18885
 Alpha virt. eigenvalues --    0.18235   0.19336   0.20308   0.20855   0.25495
 Alpha virt. eigenvalues --    0.25716   0.26360   0.27649   0.28628   0.28841
 Alpha virt. eigenvalues --    0.30236   0.31189   0.33332   0.33907   0.34347

 Mulliken atomic charges:
              1
     1  C   -0.479692
     2  C    0.069516
     3  C   -0.352044
     4  C    0.066057
     5  N   -0.846524
     6  C    0.381521
     7  C   -0.257825
     8  C   -0.157643
     9  C   -0.164216
    10  Cl  -0.027252
    11  C   -0.158977
    12  C   -0.258838
    13  C   -0.008056
    14  C   -0.262490
    15  C    0.027868
    16  C   -0.228400
    17  C   -0.205848
    18  C    0.282814
    19  N   -0.798208
    20  C    0.746279
    21  C   -0.581539
    22  O   -0.622547
    23  C    0.007434
    24  C   -0.227109
    25  C   -0.206233
    26  C   -0.134918
    27  C   -0.206052
    28  C   -0.222236
    29  C    0.783845
    30  O   -0.742042
    31  O   -0.741815
    32  H    0.189425
    33  H    0.164963
    34  H    0.150869
    35  H    0.213126
    36  H    0.167789
    37  H    0.186303
    38  H    0.190938
    39  H    0.370104
    40  H    0.201075
    41  H    0.224393
    42  H    0.223507
    43  H    0.215955
    44  H    0.226342
    45  H    0.216358
    46  H    0.202463
    47  H    0.201947
    48  H    0.200778
    49  H    0.191904
    50  H    0.171071
    51  H    0.225841
    52  H    0.225361
    53  H    0.164657
 Sum of Mulliken charges=  -1.00000

 Dipole moment (field-independent basis, Debye):
    X=    26.5500    Y=     3.5941    Z=    -1.2680  Tot=    26.8222
 Quadrupole moment (field-independent basis, Debye-Ang):
   XX=  -441.3731   YY=  -220.0518   ZZ=  -184.8360
   XY=   -28.1343   XZ=    -9.0139   YZ=    -6.9933

 Normal termination of Gaussian 03 at Thu Sep 24 19:04:28 2015.
