 Gaussian 03, Revision D.02,
 Gaussian 03:  AM64L-G03RevD.02  1-Mar-2006

 ------------------------------------------------------------
 #HF/6-31G* SCF=tight Test Pop=MK iop(6/33=2) iop(6/42=6) opt
 ------------------------------------------------------------

 ---------------------
 remark line goes here
 ---------------------
 Symbolic Z-matrix:
 Charge =  0 Multiplicity = 1

 SCF Done:  E(RHF) =  -3099.71363413     A.U. after   16 cycles
 SCF Done:  E(RHF) =  -3099.73576146     A.U. after   14 cycles
 SCF Done:  E(RHF) =  -3099.73952400     A.U. after   13 cycles
 SCF Done:  E(RHF) =  -3099.74024324     A.U. after   13 cycles
 SCF Done:  E(RHF) =  -3099.74024275     A.U. after   13 cycles
 SCF Done:  E(RHF) =  -3099.74060630     A.U. after   12 cycles
 SCF Done:  E(RHF) =  -3099.74065355     A.U. after   11 cycles
 SCF Done:  E(RHF) =  -3099.74067421     A.U. after   11 cycles
 SCF Done:  E(RHF) =  -3099.74068617     A.U. after   11 cycles
 SCF Done:  E(RHF) =  -3099.74069338     A.U. after   11 cycles
 SCF Done:  E(RHF) =  -3099.74069653     A.U. after   10 cycles
 SCF Done:  E(RHF) =  -3099.74069766     A.U. after   10 cycles
 SCF Done:  E(RHF) =  -3099.74069809     A.U. after    9 cycles
 SCF Done:  E(RHF) =  -3099.74069818     A.U. after    8 cycles
 Optimization completed.
    -- Stationary point found.

                         Standard orientation:
 ---------------------------------------------------------------------
 Center     Atomic     Atomic              Coordinates (Angstroms)
 Number     Number      Type              X           Y           Z
 ---------------------------------------------------------------------
    1          8             0       -4.374976    0.940775   -0.222729
    2          6             0       -3.267419    0.507662   -0.055533
    3          7             0       -2.220120    1.358531    0.222208
    4          6             0       -0.879240    0.996488    0.145890
    5          6             0        0.127665    1.939117    0.002752
    6          6             0        1.448823    1.533541   -0.057984
    7          6             0        1.754179    0.187977    0.013139
    8         35             0        3.564830   -0.374103   -0.082371
    9          6             0        0.752376   -0.755340    0.151261
   10          6             0       -0.568093   -0.353561    0.227443
   11          6             0       -1.705545   -1.318328    0.437798
   12          7             0       -2.937990   -0.811742   -0.141948
   13          6             0       -4.016626   -1.769765   -0.284154
   14          1             0       -3.662361   -2.618330   -0.857274
   15          1             0       -4.366469   -2.124513    0.682665
   16          1             0       -4.838900   -1.307309   -0.802611
   17          1             0       -1.838856   -1.517794    1.502111
   18          1             0       -1.481047   -2.265251   -0.036700
   19          1             0        1.003257   -1.798482    0.204879
   20          1             0        2.230699    2.260151   -0.167750
   21          1             0       -0.115860    2.984529   -0.063263
   22          1             0       -2.469638    2.320145    0.157281
 ---------------------------------------------------------------------

 The electronic state is 1-A.
 Alpha  occ. eigenvalues -- -490.06809 -64.47952 -58.61904 -58.61719 -58.61706
 Alpha  occ. eigenvalues --  -20.52057 -15.60472 -15.59535 -11.38180 -11.30309
 Alpha  occ. eigenvalues --  -11.29933 -11.28914 -11.26291 -11.26118 -11.26028
 Alpha  occ. eigenvalues --  -11.25875 -11.25392  -9.72778  -7.47702  -7.46827
 Alpha  occ. eigenvalues --   -7.46815  -3.21595  -3.21173  -3.21162  -3.20145
 Alpha  occ. eigenvalues --   -3.20144  -1.41332  -1.28964  -1.24354  -1.17977
 Alpha  occ. eigenvalues --   -1.07955  -1.05974  -0.98162  -0.97566  -0.94213
 Alpha  occ. eigenvalues --   -0.86503  -0.84074  -0.76404  -0.75069  -0.71714
 Alpha  occ. eigenvalues --   -0.68197  -0.66175  -0.64281  -0.63958  -0.62288
 Alpha  occ. eigenvalues --   -0.59965  -0.59577  -0.58307  -0.58037  -0.55089
 Alpha  occ. eigenvalues --   -0.53889  -0.51655  -0.50318  -0.47758  -0.44153
 Alpha  occ. eigenvalues --   -0.41597  -0.41465  -0.38587  -0.35892  -0.30939
 Alpha virt. eigenvalues --    0.11652   0.12697   0.16491   0.21737   0.23334
 Alpha virt. eigenvalues --    0.24746   0.26253   0.27504   0.29413   0.30386
 Alpha virt. eigenvalues --    0.31450   0.32467   0.33258   0.34384   0.37252

 Mulliken atomic charges:
              1
     1  O   -0.638219
     2  C    1.027839
     3  N   -0.936123
     4  C    0.380167
     5  C   -0.238527
     6  C   -0.180587
     7  C   -0.022987
     8  Br  -0.117879
     9  C   -0.202397
    10  C   -0.044222
    11  C   -0.071133
    12  N   -0.706445
    13  C   -0.289939
    14  H    0.170665
    15  H    0.164609
    16  H    0.231711
    17  H    0.187444
    18  H    0.192973
    19  H    0.232414
    20  H    0.235643
    21  H    0.219854
    22  H    0.405141
 Sum of Mulliken charges=   0.00000

 Dipole moment (field-independent basis, Debye):
    X=     0.9861    Y=    -0.9569    Z=     0.6039  Tot=     1.5010
 Quadrupole moment (field-independent basis, Debye-Ang):
   XX=  -109.7905   YY=   -75.6425   ZZ=   -91.0029
   XY=    10.2354   XZ=    -1.9903   YZ=    -0.5411

 Normal termination of Gaussian 03 at Wed Jun  8 09:50:45 2016.
